%VERSION  VERSION_STAMP = V0001.000  DATE = 06/02/22  11:50:56                  
%FLAG TITLE                                                                     
%FORMAT(20a4)                                                                   
default_name                                                                    
%FLAG POINTERS                                                                  
%FORMAT(10I8)                                                                   
     300      10     141     167     320     234     677     622       0       0
    1684      23     167     234     622      15      32      32      11       0
       0       0       0       0       0       0       0       0      21       0
       0
%FLAG ATOM_NAME                                                                 
%FORMAT(20a4)                                                                   
HH31CH3 HH32HH33C   O   N   H   CA  HA  CB  HB2 HB3 CG  CD1 HD1 CE1 HE1 CZ  OH  
HH  CE2 HE2 CD2 HD2 C   O   N   H   CA  HA  CB  HB2 HB3 OG  HG  C   O   N   CD  
HD2 HD3 CG  HG2 HG3 CB  HB2 HB3 CA  HA  C   O   N   H   CA  HA  CB  HB  CG2 HG21
HG22HG23OG1 HG1 C   O   N   H   CA  HA  CB  HB2 HB3 OG  HG  C   O   N   CD  HD2 
HD3 CG  HG2 HG3 CB  HB2 HB3 CA  HA  C   O   N   H   CA  HA  CB  HB2 HB3 OG  HG  
C   O   N   H   CA  HA  CB  HB2 HB3 CG  CD1 HD1 CE1 HE1 CZ  OH  HH  CE2 HE2 CD2 
HD2 C   O   N   H   CA  HA  CB  HB2 HB3 OG  HG  C   O   N   CD  HD2 HD3 CG  HG2 
HG3 CB  HB2 HB3 CA  HA  C   O   N   H   CA  HA  CB  HB  CG2 HG21HG22HG23OG1 HG1 
C   O   N   H   CA  HA  CB  HB2 HB3 OG  HG  C   O   N   CD  HD2 HD3 CG  HG2 HG3 
CB  HB2 HB3 CA  HA  C   O   N   H   CA  HA  CB  HB2 HB3 CG  OD1 ND2 HD21HD22C   
O   N   H   CA  HA  CB  HB2 HB3 CG  CD1 HD1 CE1 HE1 CZ  OH  HH  CE2 HE2 CD2 HD2 
C   O   N   H   CA  HA  CB  HB2 HB3 OG  HG  C   O   N   CD  HD2 HD3 CG  HG2 HG3 
CB  HB2 HB3 CA  HA  C   O   N   H   CA  HA  CB  HB  CG2 HG21HG22HG23OG1 HG1 C   
O   N   H   CA  HA  CB  HB2 HB3 OG  HG  C   O   N   CD  HD2 HD3 CG  HG2 HG3 CB  
HB2 HB3 CA  HA  C   O   N   H   CA  HA  CB  HB2 HB3 OG  HG  C   O   N   HN1 HN2 
%FLAG CHARGE                                                                    
%FORMAT(5E16.8)                                                                 
  2.04636429E+00 -6.67300626E+00  2.04636429E+00  2.04636429E+00  1.08823576E+01
 -1.03484442E+01 -7.57501011E+00  4.95464337E+00 -2.55112200E-02  1.59627348E+00
 -2.76978960E-01  5.37557850E-01  5.37557850E-01 -2.00445300E-02 -3.47317038E+00
  3.09596877E+00 -4.26584043E+00  3.01761288E+00  5.87851398E+00 -1.01662212E+01
  7.27434216E+00 -4.26584043E+00  3.01761288E+00 -3.47317038E+00  3.09596877E+00
  1.08841798E+01 -1.03484442E+01 -7.57501011E+00  4.95464337E+00 -4.53735270E-01
  1.53613989E+00  3.85766091E+00  6.41424960E-01  6.41424960E-01 -1.19283176E+01
  7.79003325E+00  1.08841798E+01 -1.03484442E+01 -4.64304204E+00  3.49868160E-01
  7.12491930E-01  7.12491930E-01  3.44401470E-01  3.88134990E-01  3.88134990E-01
 -1.27556100E-01  4.61024190E-01  4.61024190E-01 -4.84713180E-01  1.16804943E+00
  1.07438681E+01 -1.04741780E+01 -7.57501011E+00  4.95464337E+00 -7.08847470E-01
  1.83498561E+00  6.65842842E+00  7.83558900E-02 -4.44259674E+00  1.16987166E+00
  1.16987166E+00  1.16987166E+00 -1.23200970E+01  7.47478746E+00  1.08841798E+01
 -1.03484442E+01 -7.57501011E+00  4.95464337E+00 -4.53735270E-01  1.53613989E+00
  3.85766091E+00  6.41424960E-01  6.41424960E-01 -1.19283176E+01  7.79003325E+00
  1.08841798E+01 -1.03484442E+01 -4.64304204E+00  3.49868160E-01  7.12491930E-01
  7.12491930E-01  3.44401470E-01  3.88134990E-01  3.88134990E-01 -1.27556100E-01
  4.61024190E-01  4.61024190E-01 -4.84713180E-01  1.16804943E+00  1.07438681E+01
 -1.04741780E+01 -7.57501011E+00  4.95464337E+00 -4.53735270E-01  1.53613989E+00
  3.85766091E+00  6.41424960E-01  6.41424960E-01 -1.19283176E+01  7.79003325E+00
  1.08841798E+01 -1.03484442E+01 -7.57501011E+00  4.95464337E+00 -2.55112200E-02
  1.59627348E+00 -2.76978960E-01  5.37557850E-01  5.37557850E-01 -2.00445300E-02
 -3.47317038E+00  3.09596877E+00 -4.26584043E+00  3.01761288E+00  5.87851398E+00
 -1.01662212E+01  7.27434216E+00 -4.26584043E+00  3.01761288E+00 -3.47317038E+00
  3.09596877E+00  1.08841798E+01 -1.03484442E+01 -7.57501011E+00  4.95464337E+00
 -4.53735270E-01  1.53613989E+00  3.85766091E+00  6.41424960E-01  6.41424960E-01
 -1.19283176E+01  7.79003325E+00  1.08841798E+01 -1.03484442E+01 -4.64304204E+00
  3.49868160E-01  7.12491930E-01  7.12491930E-01  3.44401470E-01  3.88134990E-01
  3.88134990E-01 -1.27556100E-01  4.61024190E-01  4.61024190E-01 -4.84713180E-01
  1.16804943E+00  1.07438681E+01 -1.04741780E+01 -7.57501011E+00  4.95464337E+00
 -7.08847470E-01  1.83498561E+00  6.65842842E+00  7.83558900E-02 -4.44259674E+00
  1.16987166E+00  1.16987166E+00  1.16987166E+00 -1.23200970E+01  7.47478746E+00
  1.08841798E+01 -1.03484442E+01 -7.57501011E+00  4.95464337E+00 -4.53735270E-01
  1.53613989E+00  3.85766091E+00  6.41424960E-01  6.41424960E-01 -1.19283176E+01
  7.79003325E+00  1.08841798E+01 -1.03484442E+01 -4.64304204E+00  3.49868160E-01
  7.12491930E-01  7.12491930E-01  3.44401470E-01  3.88134990E-01  3.88134990E-01
 -1.27556100E-01  4.61024190E-01  4.61024190E-01 -4.84713180E-01  1.16804943E+00
  1.07438681E+01 -1.04741780E+01 -7.57501011E+00  4.95464337E+00  2.60578890E-01
  1.90969704E+00 -3.71917143E+00  1.45231731E+00  1.45231731E+00  1.29924999E+01
 -1.08076461E+01 -1.67481159E+01  7.64607708E+00  7.64607708E+00  1.08841798E+01
 -1.03484442E+01 -7.57501011E+00  4.95464337E+00 -2.55112200E-02  1.59627348E+00
 -2.76978960E-01  5.37557850E-01  5.37557850E-01 -2.00445300E-02 -3.47317038E+00
  3.09596877E+00 -4.26584043E+00  3.01761288E+00  5.87851398E+00 -1.01662212E+01
  7.27434216E+00 -4.26584043E+00  3.01761288E+00 -3.47317038E+00  3.09596877E+00
  1.08841798E+01 -1.03484442E+01 -7.57501011E+00  4.95464337E+00 -4.53735270E-01
  1.53613989E+00  3.85766091E+00  6.41424960E-01  6.41424960E-01 -1.19283176E+01
  7.79003325E+00  1.08841798E+01 -1.03484442E+01 -4.64304204E+00  3.49868160E-01
  7.12491930E-01  7.12491930E-01  3.44401470E-01  3.88134990E-01  3.88134990E-01
 -1.27556100E-01  4.61024190E-01  4.61024190E-01 -4.84713180E-01  1.16804943E+00
  1.07438681E+01 -1.04741780E+01 -7.57501011E+00  4.95464337E+00 -7.08847470E-01
  1.83498561E+00  6.65842842E+00  7.83558900E-02 -4.44259674E+00  1.16987166E+00
  1.16987166E+00  1.16987166E+00 -1.23200970E+01  7.47478746E+00  1.08841798E+01
 -1.03484442E+01 -7.57501011E+00  4.95464337E+00 -4.53735270E-01  1.53613989E+00
  3.85766091E+00  6.41424960E-01  6.41424960E-01 -1.19283176E+01  7.79003325E+00
  1.08841798E+01 -1.03484442E+01 -4.64304204E+00  3.49868160E-01  7.12491930E-01
  7.12491930E-01  3.44401470E-01  3.88134990E-01  3.88134990E-01 -1.27556100E-01
  4.61024190E-01  4.61024190E-01 -4.84713180E-01  1.16804943E+00  1.07438681E+01
 -1.04741780E+01 -7.57501011E+00  4.95464337E+00 -4.53735270E-01  1.53613989E+00
  3.85766091E+00  6.41424960E-01  6.41424960E-01 -1.19283176E+01  7.79003325E+00
  1.08841798E+01 -1.03484442E+01 -8.43692490E+00  4.21846245E+00  4.21846245E+00
%FLAG ATOMIC_NUMBER                                                             
%FORMAT(10I8)                                                                   
       1       6       1       1       6       8       7       1       6       1
       6       1       1       6       6       1       6       1       6       8
       1       6       1       6       1       6       8       7       1       6
       1       6       1       1       8       1       6       8       7       6
       1       1       6       1       1       6       1       1       6       1
       6       8       7       1       6       1       6       1       6       1
       1       1       8       1       6       8       7       1       6       1
       6       1       1       8       1       6       8       7       6       1
       1       6       1       1       6       1       1       6       1       6
       8       7       1       6       1       6       1       1       8       1
       6       8       7       1       6       1       6       1       1       6
       6       1       6       1       6       8       1       6       1       6
       1       6       8       7       1       6       1       6       1       1
       8       1       6       8       7       6       1       1       6       1
       1       6       1       1       6       1       6       8       7       1
       6       1       6       1       6       1       1       1       8       1
       6       8       7       1       6       1       6       1       1       8
       1       6       8       7       6       1       1       6       1       1
       6       1       1       6       1       6       8       7       1       6
       1       6       1       1       6       8       7       1       1       6
       8       7       1       6       1       6       1       1       6       6
       1       6       1       6       8       1       6       1       6       1
       6       8       7       1       6       1       6       1       1       8
       1       6       8       7       6       1       1       6       1       1
       6       1       1       6       1       6       8       7       1       6
       1       6       1       6       1       1       1       8       1       6
       8       7       1       6       1       6       1       1       8       1
       6       8       7       6       1       1       6       1       1       6
       1       1       6       1       6       8       7       1       6       1
       6       1       1       8       1       6       8       7       1       1
%FLAG MASS                                                                      
%FORMAT(5E16.8)                                                                 
  1.00800000E+00  1.20100000E+01  1.00800000E+00  1.00800000E+00  1.20100000E+01
  1.60000000E+01  1.40100000E+01  1.00800000E+00  1.20100000E+01  1.00800000E+00
  1.20100000E+01  1.00800000E+00  1.00800000E+00  1.20100000E+01  1.20100000E+01
  1.00800000E+00  1.20100000E+01  1.00800000E+00  1.20100000E+01  1.60000000E+01
  1.00800000E+00  1.20100000E+01  1.00800000E+00  1.20100000E+01  1.00800000E+00
  1.20100000E+01  1.60000000E+01  1.40100000E+01  1.00800000E+00  1.20100000E+01
  1.00800000E+00  1.20100000E+01  1.00800000E+00  1.00800000E+00  1.60000000E+01
  1.00800000E+00  1.20100000E+01  1.60000000E+01  1.40100000E+01  1.20100000E+01
  1.00800000E+00  1.00800000E+00  1.20100000E+01  1.00800000E+00  1.00800000E+00
  1.20100000E+01  1.00800000E+00  1.00800000E+00  1.20100000E+01  1.00800000E+00
  1.20100000E+01  1.60000000E+01  1.40100000E+01  1.00800000E+00  1.20100000E+01
  1.00800000E+00  1.20100000E+01  1.00800000E+00  1.20100000E+01  1.00800000E+00
  1.00800000E+00  1.00800000E+00  1.60000000E+01  1.00800000E+00  1.20100000E+01
  1.60000000E+01  1.40100000E+01  1.00800000E+00  1.20100000E+01  1.00800000E+00
  1.20100000E+01  1.00800000E+00  1.00800000E+00  1.60000000E+01  1.00800000E+00
  1.20100000E+01  1.60000000E+01  1.40100000E+01  1.20100000E+01  1.00800000E+00
  1.00800000E+00  1.20100000E+01  1.00800000E+00  1.00800000E+00  1.20100000E+01
  1.00800000E+00  1.00800000E+00  1.20100000E+01  1.00800000E+00  1.20100000E+01
  1.60000000E+01  1.40100000E+01  1.00800000E+00  1.20100000E+01  1.00800000E+00
  1.20100000E+01  1.00800000E+00  1.00800000E+00  1.60000000E+01  1.00800000E+00
  1.20100000E+01  1.60000000E+01  1.40100000E+01  1.00800000E+00  1.20100000E+01
  1.00800000E+00  1.20100000E+01  1.00800000E+00  1.00800000E+00  1.20100000E+01
  1.20100000E+01  1.00800000E+00  1.20100000E+01  1.00800000E+00  1.20100000E+01
  1.60000000E+01  1.00800000E+00  1.20100000E+01  1.00800000E+00  1.20100000E+01
  1.00800000E+00  1.20100000E+01  1.60000000E+01  1.40100000E+01  1.00800000E+00
  1.20100000E+01  1.00800000E+00  1.20100000E+01  1.00800000E+00  1.00800000E+00
  1.60000000E+01  1.00800000E+00  1.20100000E+01  1.60000000E+01  1.40100000E+01
  1.20100000E+01  1.00800000E+00  1.00800000E+00  1.20100000E+01  1.00800000E+00
  1.00800000E+00  1.20100000E+01  1.00800000E+00  1.00800000E+00  1.20100000E+01
  1.00800000E+00  1.20100000E+01  1.60000000E+01  1.40100000E+01  1.00800000E+00
  1.20100000E+01  1.00800000E+00  1.20100000E+01  1.00800000E+00  1.20100000E+01
  1.00800000E+00  1.00800000E+00  1.00800000E+00  1.60000000E+01  1.00800000E+00
  1.20100000E+01  1.60000000E+01  1.40100000E+01  1.00800000E+00  1.20100000E+01
  1.00800000E+00  1.20100000E+01  1.00800000E+00  1.00800000E+00  1.60000000E+01
  1.00800000E+00  1.20100000E+01  1.60000000E+01  1.40100000E+01  1.20100000E+01
  1.00800000E+00  1.00800000E+00  1.20100000E+01  1.00800000E+00  1.00800000E+00
  1.20100000E+01  1.00800000E+00  1.00800000E+00  1.20100000E+01  1.00800000E+00
  1.20100000E+01  1.60000000E+01  1.40100000E+01  1.00800000E+00  1.20100000E+01
  1.00800000E+00  1.20100000E+01  1.00800000E+00  1.00800000E+00  1.20100000E+01
  1.60000000E+01  1.40100000E+01  1.00800000E+00  1.00800000E+00  1.20100000E+01
  1.60000000E+01  1.40100000E+01  1.00800000E+00  1.20100000E+01  1.00800000E+00
  1.20100000E+01  1.00800000E+00  1.00800000E+00  1.20100000E+01  1.20100000E+01
  1.00800000E+00  1.20100000E+01  1.00800000E+00  1.20100000E+01  1.60000000E+01
  1.00800000E+00  1.20100000E+01  1.00800000E+00  1.20100000E+01  1.00800000E+00
  1.20100000E+01  1.60000000E+01  1.40100000E+01  1.00800000E+00  1.20100000E+01
  1.00800000E+00  1.20100000E+01  1.00800000E+00  1.00800000E+00  1.60000000E+01
  1.00800000E+00  1.20100000E+01  1.60000000E+01  1.40100000E+01  1.20100000E+01
  1.00800000E+00  1.00800000E+00  1.20100000E+01  1.00800000E+00  1.00800000E+00
  1.20100000E+01  1.00800000E+00  1.00800000E+00  1.20100000E+01  1.00800000E+00
  1.20100000E+01  1.60000000E+01  1.40100000E+01  1.00800000E+00  1.20100000E+01
  1.00800000E+00  1.20100000E+01  1.00800000E+00  1.20100000E+01  1.00800000E+00
  1.00800000E+00  1.00800000E+00  1.60000000E+01  1.00800000E+00  1.20100000E+01
  1.60000000E+01  1.40100000E+01  1.00800000E+00  1.20100000E+01  1.00800000E+00
  1.20100000E+01  1.00800000E+00  1.00800000E+00  1.60000000E+01  1.00800000E+00
  1.20100000E+01  1.60000000E+01  1.40100000E+01  1.20100000E+01  1.00800000E+00
  1.00800000E+00  1.20100000E+01  1.00800000E+00  1.00800000E+00  1.20100000E+01
  1.00800000E+00  1.00800000E+00  1.20100000E+01  1.00800000E+00  1.20100000E+01
  1.60000000E+01  1.40100000E+01  1.00800000E+00  1.20100000E+01  1.00800000E+00
  1.20100000E+01  1.00800000E+00  1.00800000E+00  1.60000000E+01  1.00800000E+00
  1.20100000E+01  1.60000000E+01  1.40100000E+01  1.00800000E+00  1.00800000E+00
%FLAG ATOM_TYPE_INDEX                                                           
%FORMAT(10I8)                                                                   
       1       2       1       1       3       4       5       6       2       7
       2       1       1       3       3       8       3       8       3       9
      10       3       8       3       8       3       4       5       6       2
       7       2       7       7       9      10       3       4       5       2
       7       7       2       1       1       2       1       1       2       7
       3       4       5       6       2       7       2       7       2       1
       1       1       9      10       3       4       5       6       2       7
       2       7       7       9      10       3       4       5       2       7
       7       2       1       1       2       1       1       2       7       3
       4       5       6       2       7       2       7       7       9      10
       3       4       5       6       2       7       2       1       1       3
       3       8       3       8       3       9      10       3       8       3
       8       3       4       5       6       2       7       2       7       7
       9      10       3       4       5       2       7       7       2       1
       1       2       1       1       2       7       3       4       5       6
       2       7       2       7       2       1       1       1       9      10
       3       4       5       6       2       7       2       7       7       9
      10       3       4       5       2       7       7       2       1       1
       2       1       1       2       7       3       4       5       6       2
       7       2       1       1       3       4       5       6       6       3
       4       5       6       2       7       2       1       1       3       3
       8       3       8       3       9      10       3       8       3       8
       3       4       5       6       2       7       2       7       7       9
      10       3       4       5       2       7       7       2       1       1
       2       1       1       2       7       3       4       5       6       2
       7       2       7       2       1       1       1       9      10       3
       4       5       6       2       7       2       7       7       9      10
       3       4       5       2       7       7       2       1       1       2
       1       1       2       7       3       4       5       6       2       7
       2       7       7       9      10       3       4       5       6       6
%FLAG NUMBER_EXCLUDED_ATOMS                                                     
%FORMAT(10I8)                                                                   
       6       7       4       3       7       3      10       4      12       7
      12       5       4      10       8       4       7       3       6       4
       1       3       2       1       1       7       3      10       4      11
       7       7       4       3       2       1      10       3      14      11
       6       5       8       5       4       7       4       3       6       3
       7       3      10       4      14       7      10       7       6       3
       2       1       2       1       7       3      10       4      11       7
       7       4       3       2       1      10       3      14      11       6
       5       8       5       4       7       4       3       6       3       7
       3      10       4      11       7       7       4       3       2       1
       7       3      10       4      12       7      12       5       4      10
       8       4       7       3       6       4       1       3       2       1
       1       7       3      10       4      11       7       7       4       3
       2       1      10       3      14      11       6       5       8       5
       4       7       4       3       6       3       7       3      10       4
      14       7      10       7       6       3       2       1       2       1
       7       3      10       4      11       7       7       4       3       2
       1      10       3      14      11       6       5       8       5       4
       7       4       3       6       3       7       3      10       4      12
       7      10       5       4       5       3       2       1       1       7
       3      10       4      12       7      12       5       4      10       8
       4       7       3       6       4       1       3       2       1       1
       7       3      10       4      11       7       7       4       3       2
       1      10       3      14      11       6       5       8       5       4
       7       4       3       6       3       7       3      10       4      14
       7      10       7       6       3       2       1       2       1       7
       3      10       4      11       7       7       4       3       2       1
      10       3      14      11       6       5       8       5       4       7
       4       3       6       3       7       3      10       4      11       7
       7       4       3       2       1       4       3       2       1       1
%FLAG NONBONDED_PARM_INDEX                                                      
%FORMAT(10I8)                                                                   
       1       2       4       7      11      16      22      29      37      46
       2       3       5       8      12      17      23      30      38      47
       4       5       6       9      13      18      24      31      39      48
       7       8       9      10      14      19      25      32      40      49
      11      12      13      14      15      20      26      33      41      50
      16      17      18      19      20      21      27      34      42      51
      22      23      24      25      26      27      28      35      43      52
      29      30      31      32      33      34      35      36      44      53
      37      38      39      40      41      42      43      44      45      54
      46      47      48      49      50      51      52      53      54      55
%FLAG RESIDUE_LABEL                                                             
%FORMAT(20a4)                                                                   
ACE TYR SER PRO THR SER PRO SER TYR SER PRO THR SER PRO ASN TYR SER PRO THR SER 
PRO SER NHE 
%FLAG RESIDUE_POINTER                                                           
%FORMAT(10I8)                                                                   
       1       7      28      39      53      67      78      92     103     124
     135     149     163     174     188     202     223     234     248     262
     273     287     298
%FLAG BOND_FORCE_CONSTANT                                                       
%FORMAT(5E16.8)                                                                 
  5.70000000E+02  4.90000000E+02  3.40000000E+02  3.17000000E+02  3.67000000E+02
  4.69000000E+02  5.53000000E+02  4.50000000E+02  4.69000000E+02  3.17000000E+02
  3.40000000E+02  3.10000000E+02  4.34000000E+02  3.37000000E+02  3.20000000E+02
%FLAG BOND_EQUIL_VALUE                                                          
%FORMAT(5E16.8)                                                                 
  1.22900000E+00  1.33500000E+00  1.09000000E+00  1.52200000E+00  1.08000000E+00
  1.40000000E+00  9.60000000E-01  1.36400000E+00  1.40900000E+00  1.51000000E+00
  1.09000000E+00  1.52600000E+00  1.01000000E+00  1.44900000E+00  1.41000000E+00
%FLAG ANGLE_FORCE_CONSTANT                                                      
%FORMAT(5E16.8)                                                                 
  8.00000000E+01  5.00000000E+01  5.00000000E+01  5.00000000E+01  3.50000000E+01
  8.00000000E+01  7.00000000E+01  5.00000000E+01  7.00000000E+01  5.00000000E+01
  5.00000000E+01  6.30000000E+01  6.30000000E+01  6.30000000E+01  5.00000000E+01
  6.30000000E+01  7.00000000E+01  5.00000000E+01  5.00000000E+01  5.00000000E+01
  6.30000000E+01  5.00000000E+01  5.00000000E+01  8.00000000E+01  6.30000000E+01
  5.00000000E+01  3.50000000E+01  5.50000000E+01  5.00000000E+01  4.00000000E+01
  5.00000000E+01  3.50000000E+01
%FLAG ANGLE_EQUIL_VALUE                                                         
%FORMAT(5E16.8)                                                                 
  2.14501057E+00  2.09439600E+00  2.12755727E+00  1.91113635E+00  1.91113635E+00
  2.10137732E+00  2.03505478E+00  2.09439600E+00  2.09439600E+00  1.97222290E+00
  2.09439600E+00  2.09439600E+00  2.09439600E+00  2.09439600E+00  1.91113635E+00
  1.93906163E+00  2.09439600E+00  1.91113635E+00  1.91113635E+00  1.91113635E+00
  1.98967620E+00  2.06018753E+00  1.91113635E+00  1.91462701E+00  1.92160833E+00
  1.91113635E+00  1.91113635E+00  1.89368305E+00  1.91113635E+00  1.91113635E+00
  2.05948940E+00  2.09439600E+00
%FLAG DIHEDRAL_FORCE_CONSTANT                                                   
%FORMAT(5E16.8)                                                                 
  1.00000000E+00  2.90000000E+00  1.87500000E+00  0.00000000E+00  2.00000000E+00
  2.00000000E+00  4.00000000E-01  0.00000000E+00  0.00000000E+00  2.70000000E-01
  4.20000000E-01  8.00000000E-01  8.00000000E-02  3.62500000E+00  2.30000000E+00
  1.55555556E-01  2.00000000E-01  2.00000000E-01  4.50000000E-01  1.58000000E+00
  5.50000000E-01  1.66666667E-01  2.50000000E-01  0.00000000E+00  1.60000000E-01
  1.50000000E-01  2.00000000E-01  2.50000000E-01  1.80000000E-01  1.05000000E+01
  1.10000000E+00  1.00000000E+00
%FLAG DIHEDRAL_PERIODICITY                                                      
%FORMAT(5E16.8)                                                                 
  1.00000000E+00  2.00000000E+00  2.00000000E+00  2.00000000E+00  1.00000000E+00
  2.00000000E+00  3.00000000E+00  4.00000000E+00  1.00000000E+00  2.00000000E+00
  3.00000000E+00  1.00000000E+00  3.00000000E+00  2.00000000E+00  2.00000000E+00
  3.00000000E+00  1.00000000E+00  2.00000000E+00  1.00000000E+00  2.00000000E+00
  3.00000000E+00  3.00000000E+00  1.00000000E+00  3.00000000E+00  3.00000000E+00
  3.00000000E+00  1.00000000E+00  2.00000000E+00  3.00000000E+00  2.00000000E+00
  2.00000000E+00  2.00000000E+00
%FLAG DIHEDRAL_PHASE                                                            
%FORMAT(5E16.8)                                                                 
  0.00000000E+00  3.14159400E+00  3.14159400E+00  0.00000000E+00  0.00000000E+00
  0.00000000E+00  0.00000000E+00  0.00000000E+00  0.00000000E+00  0.00000000E+00
  0.00000000E+00  0.00000000E+00  3.14159400E+00  3.14159400E+00  3.14159400E+00
  0.00000000E+00  0.00000000E+00  0.00000000E+00  3.14159400E+00  3.14159400E+00
  3.14159400E+00  0.00000000E+00  0.00000000E+00  0.00000000E+00  0.00000000E+00
  0.00000000E+00  3.14159400E+00  3.14159400E+00  0.00000000E+00  3.14159400E+00
  3.14159400E+00  3.14159400E+00
%FLAG SCEE_SCALE_FACTOR                                                         
%FORMAT(5E16.8)                                                                 
  1.20000000E+00  1.20000000E+00  1.20000000E+00  1.20000000E+00  1.20000000E+00
  1.20000000E+00  1.20000000E+00  1.20000000E+00  1.20000000E+00  1.20000000E+00
  1.20000000E+00  1.20000000E+00  1.20000000E+00  1.20000000E+00  1.20000000E+00
  1.20000000E+00  1.20000000E+00  1.20000000E+00  1.20000000E+00  1.20000000E+00
  1.20000000E+00  1.20000000E+00  1.20000000E+00  1.20000000E+00  1.20000000E+00
  1.20000000E+00  1.20000000E+00  1.20000000E+00  1.20000000E+00  0.00000000E+00
  0.00000000E+00  0.00000000E+00
%FLAG SCNB_SCALE_FACTOR                                                         
%FORMAT(5E16.8)                                                                 
  2.00000000E+00  2.00000000E+00  2.00000000E+00  2.00000000E+00  2.00000000E+00
  2.00000000E+00  2.00000000E+00  2.00000000E+00  2.00000000E+00  2.00000000E+00
  2.00000000E+00  2.00000000E+00  2.00000000E+00  2.00000000E+00  2.00000000E+00
  2.00000000E+00  2.00000000E+00  2.00000000E+00  2.00000000E+00  2.00000000E+00
  2.00000000E+00  2.00000000E+00  2.00000000E+00  2.00000000E+00  2.00000000E+00
  2.00000000E+00  2.00000000E+00  2.00000000E+00  2.00000000E+00  0.00000000E+00
  0.00000000E+00  0.00000000E+00
%FLAG SOLTY                                                                     
%FORMAT(5E16.8)                                                                 
  0.00000000E+00  0.00000000E+00  0.00000000E+00  0.00000000E+00  0.00000000E+00
  0.00000000E+00  0.00000000E+00  0.00000000E+00  0.00000000E+00  0.00000000E+00
  0.00000000E+00
%FLAG LENNARD_JONES_ACOEF                                                       
%FORMAT(5E16.8)                                                                 
  7.51607703E+03  9.71708117E+04  1.04308023E+06  8.61541883E+04  9.24822270E+05
  8.19971662E+05  5.44261042E+04  6.47841731E+05  5.74393458E+05  3.79876399E+05
  8.96776989E+04  9.95480466E+05  8.82619071E+05  6.06829342E+05  9.44293233E+05
  1.07193646E+02  2.56678134E+03  2.27577561E+03  1.02595236E+03  2.12601181E+03
  1.39982777E-01  4.98586848E+03  6.78771368E+04  6.01816484E+04  3.69471530E+04
  6.20665997E+04  5.94667300E+01  3.25969625E+03  6.55825601E+03  8.59947003E+04
  7.62451550E+04  4.77908183E+04  7.91627154E+04  8.90987508E+01  4.33325458E+03
  5.71629601E+03  6.82786631E+04  7.91544157E+05  7.01803794E+05  4.71003287E+05
  7.44975864E+05  1.40467023E+03  4.66922514E+04  6.00750218E+04  5.81803229E+05
  0.00000000E+00  0.00000000E+00  0.00000000E+00  0.00000000E+00  0.00000000E+00
  0.00000000E+00  0.00000000E+00  0.00000000E+00  0.00000000E+00  0.00000000E+00
%FLAG LENNARD_JONES_BCOEF                                                       
%FORMAT(5E16.8)                                                                 
  2.17257828E+01  1.26919150E+02  6.75612247E+02  1.12529845E+02  5.99015525E+02
  5.31102864E+02  1.11805549E+02  6.26720080E+02  5.55666448E+02  5.64885984E+02
  1.36131731E+02  7.36907417E+02  6.53361429E+02  6.77220874E+02  8.01323529E+02
  2.59456373E+00  2.06278363E+01  1.82891803E+01  1.53505284E+01  2.09604198E+01
  9.37598976E-02  1.76949863E+01  1.06076943E+02  9.40505980E+01  9.21192136E+01
  1.13252061E+02  1.93248820E+00  1.43076527E+01  2.00642027E+01  1.18043746E+02
  1.04660679E+02  1.03580945E+02  1.26451907E+02  2.33864085E+00  1.63092814E+01
  1.85196588E+01  1.25287818E+02  6.93079947E+02  6.14502845E+02  6.29300710E+02
  7.50714425E+02  1.79702257E+01  1.03606917E+02  1.16187983E+02  6.99746810E+02
  0.00000000E+00  0.00000000E+00  0.00000000E+00  0.00000000E+00  0.00000000E+00
  0.00000000E+00  0.00000000E+00  0.00000000E+00  0.00000000E+00  0.00000000E+00
%FLAG BONDS_INC_HYDROGEN                                                        
%FORMAT(10I8)                                                                   
       3       6       3       3       9       3       0       3       3      69
      72       5      63      66       5      57      60       7      48      51
       5      42      45       5      30      33       3      30      36       3
      24      27      11      18      21      13     102     105       7      93
      96      11      93      99      11      87      90      11      81      84
      13     144     147      11     135     138       3     135     141       3
     126     129       3     126     132       3     117     120      11     117
     123      11     186     189       7     174     177       3     174     180
       3     174     183       3     168     171      11     162     165      11
     156     159      13     219     222       7     210     213      11     210
     216      11     204     207      11     198     201      13     261     264
      11     252     255       3     252     258       3     243     246       3
     243     249       3     234     237      11     234     240      11     294
     297       7     285     288      11     285     291      11     279     282
      11     273     276      13     357     360       5     351     354       5
     345     348       7     336     339       5     330     333       5     318
     321       3     318     324       3     312     315      11     306     309
      13     390     393       7     381     384      11     381     387      11
     375     378      11     369     372      13     432     435      11     423
     426       3     423     429       3     414     417       3     414     420
       3     405     408      11     405     411      11     474     477       7
     462     465       3     462     468       3     462     471       3     456
     459      11     450     453      11     444     447      13     507     510
       7     498     501      11     498     504      11     492     495      11
     486     489      13     549     552      11     540     543       3     540
     546       3     531     534       3     531     537       3     522     525
      11     522     528      11     588     591      13     588     594      13
     573     576       3     573     579       3     567     570      11     561
     564      13     654     657       5     648     651       5     642     645
       7     633     636       5     627     630       5     615     618       3
     615     621       3     609     612      11     603     606      13     687
     690       7     678     681      11     678     684      11     672     675
      11     666     669      13     729     732      11     720     723       3
     720     726       3     711     714       3     711     717       3     702
     705      11     702     708      11     771     774       7     759     762
       3     759     765       3     759     768       3     753     756      11
     747     750      11     741     744      13     804     807       7     795
     798      11     795     801      11     789     792      11     783     786
      13     846     849      11     837     840       3     837     843       3
     828     831       3     828     834       3     819     822      11     819
     825      11     879     882       7     870     873      11     870     876
      11     864     867      11     858     861      13     891     894      13
     891     897      13
%FLAG BONDS_WITHOUT_HYDROGEN                                                    
%FORMAT(10I8)                                                                   
      12      15       1      12      18       2       3      12       4      75
      78       1      75      81       2      63      69       6      54      57
       8      54      63       9      48      54       9      42      48       6
      39      42       6      39      69       6      30      39      10      24
      30      12      24      75       4      18      24      14     108     111
       1     108     114       2      93     102      15      87      93      12
      87     108       4      81      87      14     150     153       1     150
     156       2     144     150       4     135     144      12     126     135
      12     117     126      12     114     117      14     114     144      14
     192     195       1     192     198       2     168     174      12     168
     186      15     162     168      12     162     192       4     156     162
      14     225     228       1     225     231       2     210     219      15
     204     210      12     204     225       4     198     204      14     267
     270       1     267     273       2     261     267       4     252     261
      12     243     252      12     234     243      12     231     234      14
     231     261      14     300     303       1     300     306       2     285
     294      15     279     285      12     279     300       4     273     279
      14     363     366       1     363     369       2     351     357       6
     342     345       8     342     351       9     336     342       9     330
     336       6     327     330       6     327     357       6     318     327
      10     312     318      12     312     363       4     306     312      14
     396     399       1     396     402       2     381     390      15     375
     381      12     375     396       4     369     375      14     438     441
       1     438     444       2     432     438       4     423     432      12
     414     423      12     405     414      12     402     405      14     402
     432      14     480     483       1     480     486       2     456     462
      12     456     474      15     450     456      12     450     480       4
     444     450      14     513     516       1     513     519       2     498
     507      15     492     498      12     492     513       4     486     492
      14     555     558       1     555     561       2     549     555       4
     540     549      12     531     540      12     522     531      12     519
     522      14     519     549      14     597     600       1     597     603
       2     582     585       1     582     588       2     573     582       4
     567     573      12     567     597       4     561     567      14     660
     663       1     660     666       2     648     654       6     639     642
       8     639     648       9     633     639       9     627     633       6
     624     627       6     624     654       6     615     624      10     609
     615      12     609     660       4     603     609      14     693     696
       1     693     699       2     678     687      15     672     678      12
     672     693       4     666     672      14     735     738       1     735
     741       2     729     735       4     720     729      12     711     720
      12     702     711      12     699     702      14     699     729      14
     777     780       1     777     783       2     753     759      12     753
     771      15     747     753      12     747     777       4     741     747
      14     810     813       1     810     816       2     795     804      15
     789     795      12     789     810       4     783     789      14     852
     855       1     852     858       2     846     852       4     837     846
      12     828     837      12     819     828      12     816     819      14
     816     846      14     885     888       1     885     891       2     870
     879      15     864     870      12     864     885       4     858     864
      14
%FLAG ANGLES_INC_HYDROGEN                                                       
%FORMAT(10I8)                                                                   
      12      18      21       2       9       3      12       4       6       3
       9       5       6       3      12       4       0       3       6       5
       0       3       9       5       0       3      12       4      75      81
      84       2      66      63      69       8      63      69      72       8
      54      57      60      10      54      63      66      11      51      48
      54      11      45      42      48       8      42      48      51       8
      39      42      45       8      39      69      72       8      36      30
      39      15      33      30      36       5      33      30      39      15
      27      24      30      18      27      24      75      19      24      30
      33      20      24      30      36      20      21      18      24      22
      18      24      27      23      99      93     102      26      96      93
      99      27      96      93     102      26      93     102     105      28
      90      87      93      18      90      87     108      19      87      93
      96      18      87      93      99      18      84      81      87      22
      81      87      90      23     150     156     159       2     147     144
     150      19     141     135     144      20     138     135     141       5
     138     135     144      20     135     144     147      18     132     126
     135      20     129     126     132       5     129     126     135      20
     126     135     138      20     126     135     141      20     123     117
     126      18     120     117     123      27     120     117     126      18
     117     126     129      20     117     126     132      20     114     117
     120      23     114     117     123      23     114     144     147      23
     192     198     201       2     180     174     183       5     177     174
     180       5     177     174     183       5     171     168     174      18
     171     168     186      26     168     174     177      20     168     174
     180      20     168     174     183      20     168     186     189      28
     165     162     168      18     165     162     192      19     162     168
     171      18     159     156     162      22     156     162     165      23
     216     210     219      26     213     210     216      27     213     210
     219      26     210     219     222      28     207     204     210      18
     207     204     225      19     204     210     213      18     204     210
     216      18     201     198     204      22     198     204     207      23
     267     273     276       2     264     261     267      19     258     252
     261      20     255     252     258       5     255     252     261      20
     252     261     264      18     249     243     252      20     246     243
     249       5     246     243     252      20     243     252     255      20
     243     252     258      20     240     234     243      18     237     234
     240      27     237     234     243      18     234     243     246      20
     234     243     249      20     231     234     237      23     231     234
     240      23     231     261     264      23     300     306     309       2
     291     285     294      26     288     285     291      27     288     285
     294      26     285     294     297      28     282     279     285      18
     282     279     300      19     279     285     288      18     279     285
     291      18     276     273     279      22     273     279     282      23
     363     369     372       2     354     351     357       8     351     357
     360       8     342     345     348      10     342     351     354      11
     339     336     342      11     333     330     336       8     330     336
     339       8     327     330     333       8     327     357     360       8
     324     318     327      15     321     318     324       5     321     318
     327      15     315     312     318      18     315     312     363      19
     312     318     321      20     312     318     324      20     309     306
     312      22     306     312     315      23     387     381     390      26
     384     381     387      27     384     381     390      26     381     390
     393      28     378     375     381      18     378     375     396      19
     375     381     384      18     375     381     387      18     372     369
     375      22     369     375     378      23     438     444     447       2
     435     432     438      19     429     423     432      20     426     423
     429       5     426     423     432      20     423     432     435      18
     420     414     423      20     417     414     420       5     417     414
     423      20     414     423     426      20     414     423     429      20
     411     405     414      18     408     405     411      27     408     405
     414      18     405     414     417      20     405     414     420      20
     402     405     408      23     402     405     411      23     402     432
     435      23     480     486     489       2     468     462     471       5
     465     462     468       5     465     462     471       5     459     456
     462      18     459     456     474      26     456     462     465      20
     456     462     468      20     456     462     471      20     456     474
     477      28     453     450     456      18     453     450     480      19
     450     456     459      18     447     444     450      22     444     450
     453      23     504     498     507      26     501     498     504      27
     501     498     507      26     498     507     510      28     495     492
     498      18     495     492     513      19     492     498     501      18
     492     498     504      18     489     486     492      22     486     492
     495      23     555     561     564       2     552     549     555      19
     546     540     549      20     543     540     546       5     543     540
     549      20     540     549     552      18     537     531     540      20
     534     531     537       5     534     531     540      20     531     540
     543      20     531     540     546      20     528     522     531      18
     525     522     528      27     525     522     531      18     522     531
     534      20     522     531     537      20     519     522     525      23
     519     522     528      23     519     549     552      23     597     603
     606       2     591     588     594      32     582     588     591       2
     582     588     594       2     579     573     582       4     576     573
     579       5     576     573     582       4     570     567     573      18
     570     567     597      19     567     573     576      20     567     573
     579      20     564     561     567      22     561     567     570      23
     660     666     669       2     651     648     654       8     648     654
     657       8     639     642     645      10     639     648     651      11
     636     633     639      11     630     627     633       8     627     633
     636       8     624     627     630       8     624     654     657       8
     621     615     624      15     618     615     621       5     618     615
     624      15     612     609     615      18     612     609     660      19
     609     615     618      20     609     615     621      20     606     603
     609      22     603     609     612      23     684     678     687      26
     681     678     684      27     681     678     687      26     678     687
     690      28     675     672     678      18     675     672     693      19
     672     678     681      18     672     678     684      18     669     666
     672      22     666     672     675      23     735     741     744       2
     732     729     735      19     726     720     729      20     723     720
     726       5     723     720     729      20     720     729     732      18
     717     711     720      20     714     711     717       5     714     711
     720      20     711     720     723      20     711     720     726      20
     708     702     711      18     705     702     708      27     705     702
     711      18     702     711     714      20     702     711     717      20
     699     702     705      23     699     702     708      23     699     729
     732      23     777     783     786       2     765     759     768       5
     762     759     765       5     762     759     768       5     756     753
     759      18     756     753     771      26     753     759     762      20
     753     759     765      20     753     759     768      20     753     771
     774      28     750     747     753      18     750     747     777      19
     747     753     756      18     744     741     747      22     741     747
     750      23     801     795     804      26     798     795     801      27
     798     795     804      26     795     804     807      28     792     789
     795      18     792     789     810      19     789     795     798      18
     789     795     801      18     786     783     789      22     783     789
     792      23     852     858     861       2     849     846     852      19
     843     837     846      20     840     837     843       5     840     837
     846      20     837     846     849      18     834     828     837      20
     831     828     834       5     831     828     837      20     828     837
     840      20     828     837     843      20     825     819     828      18
     822     819     825      27     822     819     828      18     819     828
     831      20     819     828     834      20     816     819     822      23
     816     819     825      23     816     846     849      23     885     891
     894       2     885     891     897       2     876     870     879      26
     873     870     876      27     873     870     879      26     870     879
     882      28     867     864     870      18     867     864     885      19
     864     870     873      18     864     870     876      18     861     858
     864      22     858     864     867      23     894     891     897      32
%FLAG ANGLES_WITHOUT_HYDROGEN                                                   
%FORMAT(10I8)                                                                   
      15      12      18       1      12      18      24       3       3      12
      15       6       3      12      18       7      78      75      81       1
      75      81      87       3      57      54      63       9      54      63
      69      12      48      54      57       9      48      54      63      13
      42      39      69      14      42      48      54      12      39      42
      48      14      39      69      63      14      30      24      75      16
      30      39      42      17      30      39      69      17      24      30
      39      21      24      75      78       6      24      75      81       7
      18      24      30      24      18      24      75      25     111     108
     114       1     108     114     117       3     108     114     144       3
      93      87     108      16      87      93     102      29      87     108
     111       6      87     108     114       7      81      87      93      24
      81      87     108      25     153     150     156       1     150     156
     162       3     144     150     153       6     144     150     156       7
     135     144     150      16     126     135     144      30     117     114
     144      31     117     126     135      30     114     117     126      24
     114     144     135      24     114     144     150      25     195     192
     198       1     192     198     204       3     174     168     186      29
     168     162     192      16     162     168     174      30     162     168
     186      29     162     192     195       6     162     192     198       7
     156     162     168      24     156     162     192      25     228     225
     231       1     225     231     234       3     225     231     261       3
     210     204     225      16     204     210     219      29     204     225
     228       6     204     225     231       7     198     204     210      24
     198     204     225      25     270     267     273       1     267     273
     279       3     261     267     270       6     261     267     273       7
     252     261     267      16     243     252     261      30     234     231
     261      31     234     243     252      30     231     234     243      24
     231     261     252      24     231     261     267      25     303     300
     306       1     300     306     312       3     285     279     300      16
     279     285     294      29     279     300     303       6     279     300
     306       7     273     279     285      24     273     279     300      25
     366     363     369       1     363     369     375       3     345     342
     351       9     342     351     357      12     336     342     345       9
     336     342     351      13     330     327     357      14     330     336
     342      12     327     330     336      14     327     357     351      14
     318     312     363      16     318     327     330      17     318     327
     357      17     312     318     327      21     312     363     366       6
     312     363     369       7     306     312     318      24     306     312
     363      25     399     396     402       1     396     402     405       3
     396     402     432       3     381     375     396      16     375     381
     390      29     375     396     399       6     375     396     402       7
     369     375     381      24     369     375     396      25     441     438
     444       1     438     444     450       3     432     438     441       6
     432     438     444       7     423     432     438      16     414     423
     432      30     405     402     432      31     405     414     423      30
     402     405     414      24     402     432     423      24     402     432
     438      25     483     480     486       1     480     486     492       3
     462     456     474      29     456     450     480      16     450     456
     462      30     450     456     474      29     450     480     483       6
     450     480     486       7     444     450     456      24     444     450
     480      25     516     513     519       1     513     519     522       3
     513     519     549       3     498     492     513      16     492     498
     507      29     492     513     516       6     492     513     519       7
     486     492     498      24     486     492     513      25     558     555
     561       1     555     561     567       3     549     555     558       6
     549     555     561       7     540     549     555      16     531     540
     549      30     522     519     549      31     522     531     540      30
     519     522     531      24     519     549     540      24     519     549
     555      25     600     597     603       1     597     603     609       3
     585     582     588       1     573     567     597      16     573     582
     585       6     573     582     588       7     567     573     582      16
     567     597     600       6     567     597     603       7     561     567
     573      24     561     567     597      25     663     660     666       1
     660     666     672       3     642     639     648       9     639     648
     654      12     633     639     642       9     633     639     648      13
     627     624     654      14     627     633     639      12     624     627
     633      14     624     654     648      14     615     609     660      16
     615     624     627      17     615     624     654      17     609     615
     624      21     609     660     663       6     609     660     666       7
     603     609     615      24     603     609     660      25     696     693
     699       1     693     699     702       3     693     699     729       3
     678     672     693      16     672     678     687      29     672     693
     696       6     672     693     699       7     666     672     678      24
     666     672     693      25     738     735     741       1     735     741
     747       3     729     735     738       6     729     735     741       7
     720     729     735      16     711     720     729      30     702     699
     729      31     702     711     720      30     699     702     711      24
     699     729     720      24     699     729     735      25     780     777
     783       1     777     783     789       3     759     753     771      29
     753     747     777      16     747     753     759      30     747     753
     771      29     747     777     780       6     747     777     783       7
     741     747     753      24     741     747     777      25     813     810
     816       1     810     816     819       3     810     816     846       3
     795     789     810      16     789     795     804      29     789     810
     813       6     789     810     816       7     783     789     795      24
     783     789     810      25     855     852     858       1     852     858
     864       3     846     852     855       6     846     852     858       7
     837     846     852      16     828     837     846      30     819     816
     846      31     819     828     837      30     816     819     828      24
     816     846     837      24     816     846     852      25     888     885
     891       1     870     864     885      16     864     870     879      29
     864     885     888       6     864     885     891       7     858     864
     870      24     858     864     885      25
%FLAG DIHEDRALS_INC_HYDROGEN                                                    
%FORMAT(10I8)                                                                   
      15      12      18      21       1      15      12     -18      21       2
      12      18      24      27       4       9       3      12      15      12
       9       3     -12      15       4       9       3     -12      15      13
       9       3      12      18       4       6       3      12      15      12
       6       3     -12      15       4       6       3     -12      15      13
       6       3      12      18       4       3      12      18      21       3
       0       3      12      15      12       0       3     -12      15       4
       0       3     -12      15      13       0       3      12      18       4
      78      75      81      84       1      78      75     -81      84       2
      75      81      87      90       4      66      63      69      72      14
      60      57      54      63      15      57      54      63      66      14
      54      63      69      72      14      51      48      54      57      14
      51      48      54      63      14      48      54      57      60      15
      48      54      63      66      14      45      42      39      69      14
      45      42      48      51      14      45      42      48      54      14
      42      39      69      72      14      39      42      48      51      14
      39      69      63      66      14      36      30      24      75      16
      36      30      39      42       4      36      30      39      69       4
      33      30      24      75      16      33      30      39      42       4
      33      30      39      69       4      30      39      42      45      14
      30      39      69      72      14      27      24      30      33      16
      27      24      30      36      16      27      24      30      39      16
      27      24      75      78      12      27      24     -75      78       4
      27      24     -75      78      13      27      24      75      81       4
      24      75      81      84       3      21      18      24      27       4
      21      18      24      30       4      21      18      24      75       4
      18      24      30      33      16      18      24      30      36      16
     108     114     117     120       4     108     114     117     123       4
     108     114     144     147       4      99      93      87     108      16
      99      93     102     105      22      96      93      87     108      16
      96      93     102     105      22      90      87      93      96      16
      90      87      93      99      16      90      87      93     102      23
      90      87     -93     102      24      90      87     108     111      12
      90      87    -108     111       4      90      87    -108     111      13
      90      87     108     114       4      87      93     102     105      23
      87      93    -102     105      25      84      81      87      90       4
      84      81      87      93       4      84      81      87     108       4
      81      87      93      96      16      81      87      93      99      16
     153     150     156     159       1     153     150    -156     159       2
     150     156     162     165       4     147     144     150     153      12
     147     144    -150     153       4     147     144    -150     153      13
     147     144     150     156       4     144     150     156     159       3
     141     135     144     147      16     141     135     144     150      16
     138     135     144     147      16     138     135     144     150      16
     132     126     135     138      26     132     126     135     141      26
     132     126     135     144      25     129     126     135     138      26
     129     126     135     141      26     129     126     135     144      25
     126     135     144     147      16     123     117     114     144       4
     123     117     126     129      16     123     117     126     132      16
     123     117     126     135      16     120     117     114     144       4
     120     117     126     129      16     120     117     126     132      16
     120     117     126     135      16     117     114     144     147       4
     117     126     135     138      25     117     126     135     141      25
     114     117     126     129      16     114     117     126     132      16
     114     144     135     138      16     114     144     135     141      16
     195     192     198     201       1     195     192    -198     201       2
     192     198     204     207       4     183     174     168     186      23
     183     174    -168     186      24     180     174     168     186      23
     180     174    -168     186      24     177     174     168     186      23
     177     174    -168     186      24     174     168     186     189      23
     174     168    -186     189      25     171     168     162     192      16
     171     168     174     177      16     171     168     174     180      16
     171     168     174     183      16     171     168     186     189      22
     165     162     168     171      16     165     162     168     174      16
     165     162     168     186      23     165     162    -168     186      24
     165     162     192     195      12     165     162    -192     195       4
     165     162    -192     195      13     165     162     192     198       4
     162     168     174     177      25     162     168     174     180      25
     162     168     174     183      25     162     168     186     189      23
     162     168    -186     189      25     162     192     198     201       3
     159     156     162     165       4     159     156     162     168       4
     159     156     162     192       4     156     162     168     171      16
     225     231     234     237       4     225     231     234     240       4
     225     231     261     264       4     216     210     204     225      16
     216     210     219     222      22     213     210     204     225      16
     213     210     219     222      22     207     204     210     213      16
     207     204     210     216      16     207     204     210     219      23
     207     204    -210     219      24     207     204     225     228      12
     207     204    -225     228       4     207     204    -225     228      13
     207     204     225     231       4     204     210     219     222      23
     204     210    -219     222      25     201     198     204     207       4
     201     198     204     210       4     201     198     204     225       4
     198     204     210     213      16     198     204     210     216      16
     270     267     273     276       1     270     267    -273     276       2
     267     273     279     282       4     264     261     267     270      12
     264     261    -267     270       4     264     261    -267     270      13
     264     261     267     273       4     261     267     273     276       3
     258     252     261     264      16     258     252     261     267      16
     255     252     261     264      16     255     252     261     267      16
     249     243     252     255      26     249     243     252     258      26
     249     243     252     261      25     246     243     252     255      26
     246     243     252     258      26     246     243     252     261      25
     243     252     261     264      16     240     234     231     261       4
     240     234     243     246      16     240     234     243     249      16
     240     234     243     252      16     237     234     231     261       4
     237     234     243     246      16     237     234     243     249      16
     237     234     243     252      16     234     231     261     264       4
     234     243     252     255      25     234     243     252     258      25
     231     234     243     246      16     231     234     243     249      16
     231     261     252     255      16     231     261     252     258      16
     303     300     306     309       1     303     300    -306     309       2
     300     306     312     315       4     291     285     279     300      16
     291     285     294     297      22     288     285     279     300      16
     288     285     294     297      22     282     279     285     288      16
     282     279     285     291      16     282     279     285     294      23
     282     279    -285     294      24     282     279     300     303      12
     282     279    -300     303       4     282     279    -300     303      13
     282     279     300     306       4     279     285     294     297      23
     279     285    -294     297      25     279     300     306     309       3
     276     273     279     282       4     276     273     279     285       4
     276     273     279     300       4     273     279     285     288      16
     273     279     285     291      16     366     363     369     372       1
     366     363    -369     372       2     363     369     375     378       4
     354     351     357     360      14     348     345     342     351      15
     345     342     351     354      14     342     351     357     360      14
     339     336     342     345      14     339     336     342     351      14
     336     342     345     348      15     336     342     351     354      14
     333     330     327     357      14     333     330     336     339      14
     333     330     336     342      14     330     327     357     360      14
     327     330     336     339      14     327     357     351     354      14
     324     318     312     363      16     324     318     327     330       4
     324     318     327     357       4     321     318     312     363      16
     321     318     327     330       4     321     318     327     357       4
     318     327     330     333      14     318     327     357     360      14
     315     312     318     321      16     315     312     318     324      16
     315     312     318     327      16     315     312     363     366      12
     315     312    -363     366       4     315     312    -363     366      13
     315     312     363     369       4     312     363     369     372       3
     309     306     312     315       4     309     306     312     318       4
     309     306     312     363       4     306     312     318     321      16
     306     312     318     324      16     396     402     405     408       4
     396     402     405     411       4     396     402     432     435       4
     387     381     375     396      16     387     381     390     393      22
     384     381     375     396      16     384     381     390     393      22
     378     375     381     384      16     378     375     381     387      16
     378     375     381     390      23     378     375    -381     390      24
     378     375     396     399      12     378     375    -396     399       4
     378     375    -396     399      13     378     375     396     402       4
     375     381     390     393      23     375     381    -390     393      25
     372     369     375     378       4     372     369     375     381       4
     372     369     375     396       4     369     375     381     384      16
     369     375     381     387      16     441     438     444     447       1
     441     438    -444     447       2     438     444     450     453       4
     435     432     438     441      12     435     432    -438     441       4
     435     432    -438     441      13     435     432     438     444       4
     432     438     444     447       3     429     423     432     435      16
     429     423     432     438      16     426     423     432     435      16
     426     423     432     438      16     420     414     423     426      26
     420     414     423     429      26     420     414     423     432      25
     417     414     423     426      26     417     414     423     429      26
     417     414     423     432      25     414     423     432     435      16
     411     405     402     432       4     411     405     414     417      16
     411     405     414     420      16     411     405     414     423      16
     408     405     402     432       4     408     405     414     417      16
     408     405     414     420      16     408     405     414     423      16
     405     402     432     435       4     405     414     423     426      25
     405     414     423     429      25     402     405     414     417      16
     402     405     414     420      16     402     432     423     426      16
     402     432     423     429      16     483     480     486     489       1
     483     480    -486     489       2     480     486     492     495       4
     471     462     456     474      23     471     462    -456     474      24
     468     462     456     474      23     468     462    -456     474      24
     465     462     456     474      23     465     462    -456     474      24
     462     456     474     477      23     462     456    -474     477      25
     459     456     450     480      16     459     456     462     465      16
     459     456     462     468      16     459     456     462     471      16
     459     456     474     477      22     453     450     456     459      16
     453     450     456     462      16     453     450     456     474      23
     453     450    -456     474      24     453     450     480     483      12
     453     450    -480     483       4     453     450    -480     483      13
     453     450     480     486       4     450     456     462     465      25
     450     456     462     468      25     450     456     462     471      25
     450     456     474     477      23     450     456    -474     477      25
     450     480     486     489       3     447     444     450     453       4
     447     444     450     456       4     447     444     450     480       4
     444     450     456     459      16     513     519     522     525       4
     513     519     522     528       4     513     519     549     552       4
     504     498     492     513      16     504     498     507     510      22
     501     498     492     513      16     501     498     507     510      22
     495     492     498     501      16     495     492     498     504      16
     495     492     498     507      23     495     492    -498     507      24
     495     492     513     516      12     495     492    -513     516       4
     495     492    -513     516      13     495     492     513     519       4
     492     498     507     510      23     492     498    -507     510      25
     489     486     492     495       4     489     486     492     498       4
     489     486     492     513       4     486     492     498     501      16
     486     492     498     504      16     558     555     561     564       1
     558     555    -561     564       2     555     561     567     570       4
     552     549     555     558      12     552     549    -555     558       4
     552     549    -555     558      13     552     549     555     561       4
     549     555     561     564       3     546     540     549     552      16
     546     540     549     555      16     543     540     549     552      16
     543     540     549     555      16     537     531     540     543      26
     537     531     540     546      26     537     531     540     549      25
     534     531     540     543      26     534     531     540     546      26
     534     531     540     549      25     531     540     549     552      16
     528     522     519     549       4     528     522     531     534      16
     528     522     531     537      16     528     522     531     540      16
     525     522     519     549       4     525     522     531     534      16
     525     522     531     537      16     525     522     531     540      16
     522     519     549     552       4     522     531     540     543      25
     522     531     540     546      25     519     522     531     534      16
     519     522     531     537      16     519     549     540     543      16
     519     549     540     546      16     600     597     603     606       1
     600     597    -603     606       2     597     603     609     612       4
     585     582     588     591       1     585     582    -588     591       2
     585     582     588     594       1     585     582    -588     594       2
     579     573     567     597      16     579     573     582     585      12
     579     573    -582     585       4     579     573    -582     585      13
     579     573     582     588       4     576     573     567     597      16
     576     573     582     585      12     576     573    -582     585       4
     576     573    -582     585      13     576     573     582     588       4
     573     582     588     591       3     573     582     588     594       3
     570     567     573     576      16     570     567     573     579      16
     570     567     573     582      16     570     567     597     600      12
     570     567    -597     600       4     570     567    -597     600      13
     570     567     597     603       4     567     597     603     606       3
     564     561     567     570       4     564     561     567     573       4
     564     561     567     597       4     561     567     573     576      16
     561     567     573     579      16     663     660     666     669       1
     663     660    -666     669       2     660     666     672     675       4
     651     648     654     657      14     645     642     639     648      15
     642     639     648     651      14     639     648     654     657      14
     636     633     639     642      14     636     633     639     648      14
     633     639     642     645      15     633     639     648     651      14
     630     627     624     654      14     630     627     633     636      14
     630     627     633     639      14     627     624     654     657      14
     624     627     633     636      14     624     654     648     651      14
     621     615     609     660      16     621     615     624     627       4
     621     615     624     654       4     618     615     609     660      16
     618     615     624     627       4     618     615     624     654       4
     615     624     627     630      14     615     624     654     657      14
     612     609     615     618      16     612     609     615     621      16
     612     609     615     624      16     612     609     660     663      12
     612     609    -660     663       4     612     609    -660     663      13
     612     609     660     666       4     609     660     666     669       3
     606     603     609     612       4     606     603     609     615       4
     606     603     609     660       4     603     609     615     618      16
     603     609     615     621      16     693     699     702     705       4
     693     699     702     708       4     693     699     729     732       4
     684     678     672     693      16     684     678     687     690      22
     681     678     672     693      16     681     678     687     690      22
     675     672     678     681      16     675     672     678     684      16
     675     672     678     687      23     675     672    -678     687      24
     675     672     693     696      12     675     672    -693     696       4
     675     672    -693     696      13     675     672     693     699       4
     672     678     687     690      23     672     678    -687     690      25
     669     666     672     675       4     669     666     672     678       4
     669     666     672     693       4     666     672     678     681      16
     666     672     678     684      16     738     735     741     744       1
     738     735    -741     744       2     735     741     747     750       4
     732     729     735     738      12     732     729    -735     738       4
     732     729    -735     738      13     732     729     735     741       4
     729     735     741     744       3     726     720     729     732      16
     726     720     729     735      16     723     720     729     732      16
     723     720     729     735      16     717     711     720     723      26
     717     711     720     726      26     717     711     720     729      25
     714     711     720     723      26     714     711     720     726      26
     714     711     720     729      25     711     720     729     732      16
     708     702     699     729       4     708     702     711     714      16
     708     702     711     717      16     708     702     711     720      16
     705     702     699     729       4     705     702     711     714      16
     705     702     711     717      16     705     702     711     720      16
     702     699     729     732       4     702     711     720     723      25
     702     711     720     726      25     699     702     711     714      16
     699     702     711     717      16     699     729     720     723      16
     699     729     720     726      16     780     777     783     786       1
     780     777    -783     786       2     777     783     789     792       4
     768     759     753     771      23     768     759    -753     771      24
     765     759     753     771      23     765     759    -753     771      24
     762     759     753     771      23     762     759    -753     771      24
     759     753     771     774      23     759     753    -771     774      25
     756     753     747     777      16     756     753     759     762      16
     756     753     759     765      16     756     753     759     768      16
     756     753     771     774      22     750     747     753     756      16
     750     747     753     759      16     750     747     753     771      23
     750     747    -753     771      24     750     747     777     780      12
     750     747    -777     780       4     750     747    -777     780      13
     750     747     777     783       4     747     753     759     762      25
     747     753     759     765      25     747     753     759     768      25
     747     753     771     774      23     747     753    -771     774      25
     747     777     783     786       3     744     741     747     750       4
     744     741     747     753       4     744     741     747     777       4
     741     747     753     756      16     810     816     819     822       4
     810     816     819     825       4     810     816     846     849       4
     801     795     789     810      16     801     795     804     807      22
     798     795     789     810      16     798     795     804     807      22
     792     789     795     798      16     792     789     795     801      16
     792     789     795     804      23     792     789    -795     804      24
     792     789     810     813      12     792     789    -810     813       4
     792     789    -810     813      13     792     789     810     816       4
     789     795     804     807      23     789     795    -804     807      25
     786     783     789     792       4     786     783     789     795       4
     786     783     789     810       4     783     789     795     798      16
     783     789     795     801      16     855     852     858     861       1
     855     852    -858     861       2     852     858     864     867       4
     849     846     852     855      12     849     846    -852     855       4
     849     846    -852     855      13     849     846     852     858       4
     846     852     858     861       3     843     837     846     849      16
     843     837     846     852      16     840     837     846     849      16
     840     837     846     852      16     834     828     837     840      26
     834     828     837     843      26     834     828     837     846      25
     831     828     837     840      26     831     828     837     843      26
     831     828     837     846      25     828     837     846     849      16
     825     819     816     846       4     825     819     828     831      16
     825     819     828     834      16     825     819     828     837      16
     822     819     816     846       4     822     819     828     831      16
     822     819     828     834      16     822     819     828     837      16
     819     816     846     849       4     819     828     837     840      25
     819     828     837     843      25     816     819     828     831      16
     816     819     828     834      16     816     846     837     840      16
     816     846     837     843      16     888     885     891     894       1
     888     885    -891     894       2     888     885     891     897       1
     888     885    -891     897       2     876     870     864     885      16
     876     870     879     882      22     873     870     864     885      16
     873     870     879     882      22     867     864     870     873      16
     867     864     870     876      16     867     864     870     879      23
     867     864    -870     879      24     867     864     885     888      12
     867     864    -885     888       4     867     864    -885     888      13
     867     864     885     891       4     864     870     879     882      23
     864     870    -879     882      25     864     885     891     894       3
     864     885     891     897       3     861     858     864     867       4
     861     858     864     870       4     861     858     864     885       4
     858     864     870     873      16     858     864     870     876      16
      39      63     -69     -72      31      54      69     -63     -66      31
      42      54     -48     -51      31      39      48     -42     -45      31
      12      24     -18     -21      31      75      87     -81     -84      31
     150     162    -156    -159      31     192     204    -198    -201      31
     267     279    -273    -276      31     327     351    -357    -360      31
     342     357    -351    -354      31     330     342    -336    -339      31
     327     336    -330    -333      31     300     312    -306    -309      31
     363     375    -369    -372      31     438     450    -444    -447      31
     480     492    -486    -489      31     582     591    -588    -594      32
     555     567    -561    -564      31     624     648    -654    -657      31
     639     654    -648    -651      31     627     639    -633    -636      31
     624     633    -627    -630      31     597     609    -603    -606      31
     660     672    -666    -669      31     735     747    -741    -744      31
     777     789    -783    -786      31     852     864    -858    -861      31
     885     894    -891    -897      32
%FLAG DIHEDRALS_WITHOUT_HYDROGEN                                                
%FORMAT(10I8)                                                                   
      15      12      18      24       3      12      18      24      30       5
      12      18     -24      30       6      12      18     -24      30       7
      12      18     -24      30       8      12      18      24      75       9
      12      18     -24      75      10      12      18     -24      75      11
      12      18     -24      75       8       3      12      18      24       3
      78      75      81      87       3      75      81      87      93       5
      75      81     -87      93       6      75      81     -87      93       7
      75      81     -87      93       8      75      81      87     108       9
      75      81     -87     108      10      75      81     -87     108      11
      75      81     -87     108       8      57      54      63      69      14
      48      42      39      69      14      48      54     -63      69      14
      42      39      69      63      14      42      48      54      57      14
      42      48     -54      63      14      39      30      24      75      16
      39      42      48      54      14      39      69     -63      54      14
      30      24      75      78       4      30      24      75      81      17
      30      24     -75      81      18      30      24     -75      81       7
      30      24     -75      81       8      30      39      42      48      14
      30      39      69      63      14      24      30      39      42       4
      24      30      39      69       4      24      75      81      87       3
      18      24      30      39      16      18      24      75      78       4
      18      24      75      81      19      18      24     -75      81      20
      18      24     -75      81      21      18      24     -75      81       8
     111     108     114     117       3     111     108     114     144       3
     108     114     117     126       5     108     114    -117     126       6
     108     114    -117     126       7     108     114    -117     126       8
     108     114     144     135       5     108     114    -144     135       6
     108     114    -144     135       7     108     114    -144     135       8
     108     114     144     150       9     108     114    -144     150      10
     108     114    -144     150      11     108     114    -144     150       8
     102      93      87     108      16      93      87     108     111       4
      93      87     108     114      17      93      87    -108     114      18
      93      87    -108     114       7      93      87    -108     114       8
      87     108     114     117       3      87     108     114     144       3
      81      87      93     102      16      81      87     108     111       4
      81      87     108     114      19      81      87    -108     114      20
      81      87    -108     114      21      81      87    -108     114       8
     153     150     156     162       3     150     156     162     168       5
     150     156    -162     168       6     150     156    -162     168       7
     150     156    -162     168       8     150     156     162     192       9
     150     156    -162     192      10     150     156    -162     192      11
     150     156    -162     192       8     144     150     156     162       3
     135     144     150     153       4     135     144     150     156      17
     135     144    -150     156      18     135     144    -150     156       7
     135     144    -150     156       8     126     117    -114     144       4
     126     135     144     150      16     117     114    -144     135       4
     117     114     144     150       4     117     126    -135     144      27
     117     126    -135     144      28     117     126    -135     144      29
     114     117    -126     135      16     114     144    -135     126      16
     114     144     150     153       4     114     144     150     156      19
     114     144    -150     156      20     114     144    -150     156      21
     114     144    -150     156       8     195     192     198     204       3
     192     198     204     210       5     192     198    -204     210       6
     192     198    -204     210       7     192     198    -204     210       8
     192     198     204     225       9     192     198    -204     225      10
     192     198    -204     225      11     192     198    -204     225       8
     186     168     162     192      16     174     168     162     192      16
     168     162     192     195       4     168     162     192     198      17
     168     162    -192     198      18     168     162    -192     198       7
     168     162    -192     198       8     162     192     198     204       3
     156     162     168     174      16     156     162     168     186      16
     156     162     192     195       4     156     162     192     198      19
     156     162    -192     198      20     156     162    -192     198      21
     156     162    -192     198       8     228     225     231     234       3
     228     225     231     261       3     225     231     234     243       5
     225     231    -234     243       6     225     231    -234     243       7
     225     231    -234     243       8     225     231     261     252       5
     225     231    -261     252       6     225     231    -261     252       7
     225     231    -261     252       8     225     231     261     267       9
     225     231    -261     267      10     225     231    -261     267      11
     225     231    -261     267       8     219     210     204     225      16
     210     204     225     228       4     210     204     225     231      17
     210     204    -225     231      18     210     204    -225     231       7
     210     204    -225     231       8     204     225     231     234       3
     204     225     231     261       3     198     204     210     219      16
     198     204     225     228       4     198     204     225     231      19
     198     204    -225     231      20     198     204    -225     231      21
     198     204    -225     231       8     270     267     273     279       3
     267     273     279     285       5     267     273    -279     285       6
     267     273    -279     285       7     267     273    -279     285       8
     267     273     279     300       9     267     273    -279     300      10
     267     273    -279     300      11     267     273    -279     300       8
     261     267     273     279       3     252     261     267     270       4
     252     261     267     273      17     252     261    -267     273      18
     252     261    -267     273       7     252     261    -267     273       8
     243     234    -231     261       4     243     252     261     267      16
     234     231    -261     252       4     234     231     261     267       4
     234     243    -252     261      27     234     243    -252     261      28
     234     243    -252     261      29     231     234    -243     252      16
     231     261    -252     243      16     231     261     267     270       4
     231     261     267     273      19     231     261    -267     273      20
     231     261    -267     273      21     231     261    -267     273       8
     303     300     306     312       3     300     306     312     318       5
     300     306    -312     318       6     300     306    -312     318       7
     300     306    -312     318       8     300     306     312     363       9
     300     306    -312     363      10     300     306    -312     363      11
     300     306    -312     363       8     294     285     279     300      16
     285     279     300     303       4     285     279     300     306      17
     285     279    -300     306      18     285     279    -300     306       7
     285     279    -300     306       8     279     300     306     312       3
     273     279     285     294      16     273     279     300     303       4
     273     279     300     306      19     273     279    -300     306      20
     273     279    -300     306      21     273     279    -300     306       8
     366     363     369     375       3     363     369     375     381       5
     363     369    -375     381       6     363     369    -375     381       7
     363     369    -375     381       8     363     369     375     396       9
     363     369    -375     396      10     363     369    -375     396      11
     363     369    -375     396       8     345     342     351     357      14
     336     330     327     357      14     336     342    -351     357      14
     330     327     357     351      14     330     336     342     345      14
     330     336    -342     351      14     327     318     312     363      16
     327     330     336     342      14     327     357    -351     342      14
     318     312     363     366       4     318     312     363     369      17
     318     312    -363     369      18     318     312    -363     369       7
     318     312    -363     369       8     318     327     330     336      14
     318     327     357     351      14     312     318     327     330       4
     312     318     327     357       4     312     363     369     375       3
     306     312     318     327      16     306     312     363     366       4
     306     312     363     369      19     306     312    -363     369      20
     306     312    -363     369      21     306     312    -363     369       8
     399     396     402     405       3     399     396     402     432       3
     396     402     405     414       5     396     402    -405     414       6
     396     402    -405     414       7     396     402    -405     414       8
     396     402     432     423       5     396     402    -432     423       6
     396     402    -432     423       7     396     402    -432     423       8
     396     402     432     438       9     396     402    -432     438      10
     396     402    -432     438      11     396     402    -432     438       8
     390     381     375     396      16     381     375     396     399       4
     381     375     396     402      17     381     375    -396     402      18
     381     375    -396     402       7     381     375    -396     402       8
     375     396     402     405       3     375     396     402     432       3
     369     375     381     390      16     369     375     396     399       4
     369     375     396     402      19     369     375    -396     402      20
     369     375    -396     402      21     369     375    -396     402       8
     441     438     444     450       3     438     444     450     456       5
     438     444    -450     456       6     438     444    -450     456       7
     438     444    -450     456       8     438     444     450     480       9
     438     444    -450     480      10     438     444    -450     480      11
     438     444    -450     480       8     432     438     444     450       3
     423     432     438     441       4     423     432     438     444      17
     423     432    -438     444      18     423     432    -438     444       7
     423     432    -438     444       8     414     405    -402     432       4
     414     423     432     438      16     405     402    -432     423       4
     405     402     432     438       4     405     414    -423     432      27
     405     414    -423     432      28     405     414    -423     432      29
     402     405    -414     423      16     402     432    -423     414      16
     402     432     438     441       4     402     432     438     444      19
     402     432    -438     444      20     402     432    -438     444      21
     402     432    -438     444       8     483     480     486     492       3
     480     486     492     498       5     480     486    -492     498       6
     480     486    -492     498       7     480     486    -492     498       8
     480     486     492     513       9     480     486    -492     513      10
     480     486    -492     513      11     480     486    -492     513       8
     474     456     450     480      16     462     456     450     480      16
     456     450     480     483       4     456     450     480     486      17
     456     450    -480     486      18     456     450    -480     486       7
     456     450    -480     486       8     450     480     486     492       3
     444     450     456     462      16     444     450     456     474      16
     444     450     480     483       4     444     450     480     486      19
     444     450    -480     486      20     444     450    -480     486      21
     444     450    -480     486       8     516     513     519     522       3
     516     513     519     549       3     513     519     522     531       5
     513     519    -522     531       6     513     519    -522     531       7
     513     519    -522     531       8     513     519     549     540       5
     513     519    -549     540       6     513     519    -549     540       7
     513     519    -549     540       8     513     519     549     555       9
     513     519    -549     555      10     513     519    -549     555      11
     513     519    -549     555       8     507     498     492     513      16
     498     492     513     516       4     498     492     513     519      17
     498     492    -513     519      18     498     492    -513     519       7
     498     492    -513     519       8     492     513     519     522       3
     492     513     519     549       3     486     492     498     507      16
     486     492     513     516       4     486     492     513     519      19
     486     492    -513     519      20     486     492    -513     519      21
     486     492    -513     519       8     558     555     561     567       3
     555     561     567     573       5     555     561    -567     573       6
     555     561    -567     573       7     555     561    -567     573       8
     555     561     567     597       9     555     561    -567     597      10
     555     561    -567     597      11     555     561    -567     597       8
     549     555     561     567       3     540     549     555     558       4
     540     549     555     561      17     540     549    -555     561      18
     540     549    -555     561       7     540     549    -555     561       8
     531     522    -519     549       4     531     540     549     555      16
     522     519    -549     540       4     522     519     549     555       4
     522     531    -540     549      27     522     531    -540     549      28
     522     531    -540     549      29     519     522    -531     540      16
     519     549    -540     531      16     519     549     555     558       4
     519     549     555     561      19     519     549    -555     561      20
     519     549    -555     561      21     519     549    -555     561       8
     600     597     603     609       3     597     603     609     615       5
     597     603    -609     615       6     597     603    -609     615       7
     597     603    -609     615       8     597     603     609     660       9
     597     603    -609     660      10     597     603    -609     660      11
     597     603    -609     660       8     582     573     567     597      16
     573     567     597     600       4     573     567     597     603      17
     573     567    -597     603      18     573     567    -597     603       7
     573     567    -597     603       8     567     573     582     585       4
     567     573     582     588      17     567     573    -582     588      18
     567     573    -582     588       7     567     573    -582     588       8
     567     597     603     609       3     561     567     573     582      16
     561     567     597     600       4     561     567     597     603      19
     561     567    -597     603      20     561     567    -597     603      21
     561     567    -597     603       8     663     660     666     672       3
     660     666     672     678       5     660     666    -672     678       6
     660     666    -672     678       7     660     666    -672     678       8
     660     666     672     693       9     660     666    -672     693      10
     660     666    -672     693      11     660     666    -672     693       8
     642     639     648     654      14     633     627     624     654      14
     633     639    -648     654      14     627     624     654     648      14
     627     633     639     642      14     627     633    -639     648      14
     624     615     609     660      16     624     627     633     639      14
     624     654    -648     639      14     615     609     660     663       4
     615     609     660     666      17     615     609    -660     666      18
     615     609    -660     666       7     615     609    -660     666       8
     615     624     627     633      14     615     624     654     648      14
     609     615     624     627       4     609     615     624     654       4
     609     660     666     672       3     603     609     615     624      16
     603     609     660     663       4     603     609     660     666      19
     603     609    -660     666      20     603     609    -660     666      21
     603     609    -660     666       8     696     693     699     702       3
     696     693     699     729       3     693     699     702     711       5
     693     699    -702     711       6     693     699    -702     711       7
     693     699    -702     711       8     693     699     729     720       5
     693     699    -729     720       6     693     699    -729     720       7
     693     699    -729     720       8     693     699     729     735       9
     693     699    -729     735      10     693     699    -729     735      11
     693     699    -729     735       8     687     678     672     693      16
     678     672     693     696       4     678     672     693     699      17
     678     672    -693     699      18     678     672    -693     699       7
     678     672    -693     699       8     672     693     699     702       3
     672     693     699     729       3     666     672     678     687      16
     666     672     693     696       4     666     672     693     699      19
     666     672    -693     699      20     666     672    -693     699      21
     666     672    -693     699       8     738     735     741     747       3
     735     741     747     753       5     735     741    -747     753       6
     735     741    -747     753       7     735     741    -747     753       8
     735     741     747     777       9     735     741    -747     777      10
     735     741    -747     777      11     735     741    -747     777       8
     729     735     741     747       3     720     729     735     738       4
     720     729     735     741      17     720     729    -735     741      18
     720     729    -735     741       7     720     729    -735     741       8
     711     702    -699     729       4     711     720     729     735      16
     702     699    -729     720       4     702     699     729     735       4
     702     711    -720     729      27     702     711    -720     729      28
     702     711    -720     729      29     699     702    -711     720      16
     699     729    -720     711      16     699     729     735     738       4
     699     729     735     741      19     699     729    -735     741      20
     699     729    -735     741      21     699     729    -735     741       8
     780     777     783     789       3     777     783     789     795       5
     777     783    -789     795       6     777     783    -789     795       7
     777     783    -789     795       8     777     783     789     810       9
     777     783    -789     810      10     777     783    -789     810      11
     777     783    -789     810       8     771     753     747     777      16
     759     753     747     777      16     753     747     777     780       4
     753     747     777     783      17     753     747    -777     783      18
     753     747    -777     783       7     753     747    -777     783       8
     747     777     783     789       3     741     747     753     759      16
     741     747     753     771      16     741     747     777     780       4
     741     747     777     783      19     741     747    -777     783      20
     741     747    -777     783      21     741     747    -777     783       8
     813     810     816     819       3     813     810     816     846       3
     810     816     819     828       5     810     816    -819     828       6
     810     816    -819     828       7     810     816    -819     828       8
     810     816     846     837       5     810     816    -846     837       6
     810     816    -846     837       7     810     816    -846     837       8
     810     816     846     852       9     810     816    -846     852      10
     810     816    -846     852      11     810     816    -846     852       8
     804     795     789     810      16     795     789     810     813       4
     795     789     810     816      17     795     789    -810     816      18
     795     789    -810     816       7     795     789    -810     816       8
     789     810     816     819       3     789     810     816     846       3
     783     789     795     804      16     783     789     810     813       4
     783     789     810     816      19     783     789    -810     816      20
     783     789    -810     816      21     783     789    -810     816       8
     855     852     858     864       3     852     858     864     870       5
     852     858    -864     870       6     852     858    -864     870       7
     852     858    -864     870       8     852     858     864     885       9
     852     858    -864     885      10     852     858    -864     885      11
     852     858    -864     885       8     846     852     858     864       3
     837     846     852     855       4     837     846     852     858      17
     837     846    -852     858      18     837     846    -852     858       7
     837     846    -852     858       8     828     819    -816     846       4
     828     837     846     852      16     819     816    -846     837       4
     819     816     846     852       4     819     828    -837     846      27
     819     828    -837     846      28     819     828    -837     846      29
     816     819    -828     837      16     816     846    -837     828      16
     816     846     852     855       4     816     846     852     858      19
     816     846    -852     858      20     816     846    -852     858      21
     816     846    -852     858       8     879     870     864     885      16
     870     864     885     888       4     870     864     885     891      17
     870     864    -885     891      18     870     864    -885     891       7
     870     864    -885     891       8     858     864     870     879      16
     858     864     885     888       4     858     864     885     891      19
     858     864    -885     891      20     858     864    -885     891      21
     858     864    -885     891       8       3      18     -12     -15      30
      24      81     -75     -78      30      48      63     -54     -57      31
      42      69     -39     -30      31      87     114    -108    -111      30
     144     156    -150    -153      30     108     117    -114    -144      32
     162     198    -192    -195      30     204     231    -225    -228      30
     261     273    -267    -270      30     225     234    -231    -261      32
     279     306    -300    -303      30     312     369    -363    -366      30
     336     351    -342    -345      31     330     357    -327    -318      31
     375     402    -396    -399      30     432     444    -438    -441      30
     396     405    -402    -432      32     450     486    -480    -483      30
     492     519    -513    -516      30     549     561    -555    -558      30
     513     522    -519    -549      32     567     603    -597    -600      30
     573     588    -582    -585      30     609     666    -660    -663      30
     633     648    -639    -642      31     627     654    -624    -615      31
     672     699    -693    -696      30     729     741    -735    -738      30
     693     702    -699    -729      32     747     783    -777    -780      30
     789     816    -810    -813      30     846     858    -852    -855      30
     810     819    -816    -846      32     864     891    -885    -888      30
%FLAG EXCLUDED_ATOMS_LIST                                                       
%FORMAT(10I8)                                                                   
       2       3       4       5       6       7       3       4       5       6
       7       8       9       4       5       6       7       5       6       7
       6       7       8       9      10      11      26       7       8       9
       8       9      10      11      12      13      14      26      27      28
       9      10      11      26      10      11      12      13      14      15
      24      26      27      28      29      30      11      12      13      14
      26      27      28      12      13      14      15      16      17      22
      24      25      26      27      28      13      14      15      24      26
      14      15      24      26      15      16      17      18      19      22
      23      24      25      26      16      17      18      19      20      22
      24      25      17      18      19      24      18      19      20      21
      22      23      24      19      20      22      20      21      22      23
      24      25      21      22      23      24      22      23      24      25
      24      25      25       0      27      28      29      30      31      32
      37      28      29      30      29      30      31      32      33      34
      35      37      38      39      30      31      32      37      31      32
      33      34      35      36      37      38      39      40      49      32
      33      34      35      37      38      39      33      34      35      36
      37      38      39      34      35      36      37      35      36      37
      36      37       0      38      39      40      41      42      43      46
      49      50      51      39      40      49      40      41      42      43
      44      45      46      47      48      49      50      51      52      53
      41      42      43      44      45      46      47      48      49      50
      51      42      43      44      45      46      49      43      44      45
      46      49      44      45      46      47      48      49      50      51
      45      46      47      48      49      46      47      48      49      47
      48      49      50      51      52      53      48      49      50      51
      49      50      51      50      51      52      53      54      55      51
      52      53      52      53      54      55      56      57      65      53
      54      55      54      55      56      57      58      59      63      65
      66      67      55      56      57      65      56      57      58      59
      60      61      62      63      64      65      66      67      68      69
      57      58      59      63      65      66      67      58      59      60
      61      62      63      64      65      66      67      59      60      61
      62      63      64      65      60      61      62      63      64      65
      61      62      63      62      63      63      64      65       0      66
      67      68      69      70      71      76      67      68      69      68
      69      70      71      72      73      74      76      77      78      69
      70      71      76      70      71      72      73      74      75      76
      77      78      79      88      71      72      73      74      76      77
      78      72      73      74      75      76      77      78      73      74
      75      76      74      75      76      75      76       0      77      78
      79      80      81      82      85      88      89      90      78      79
      88      79      80      81      82      83      84      85      86      87
      88      89      90      91      92      80      81      82      83      84
      85      86      87      88      89      90      81      82      83      84
      85      88      82      83      84      85      88      83      84      85
      86      87      88      89      90      84      85      86      87      88
      85      86      87      88      86      87      88      89      90      91
      92      87      88      89      90      88      89      90      89      90
      91      92      93      94      90      91      92      91      92      93
      94      95      96     101      92      93      94      93      94      95
      96      97      98      99     101     102     103      94      95      96
     101      95      96      97      98      99     100     101     102     103
     104     105      96      97      98      99     101     102     103      97
      98      99     100     101     102     103      98      99     100     101
      99     100     101     100     101       0     102     103     104     105
     106     107     122     103     104     105     104     105     106     107
     108     109     110     122     123     124     105     106     107     122
     106     107     108     109     110     111     120     122     123     124
     125     126     107     108     109     110     122     123     124     108
     109     110     111     112     113     118     120     121     122     123
     124     109     110     111     120     122     110     111     120     122
     111     112     113     114     115     118     119     120     121     122
     112     113     114     115     116     118     120     121     113     114
     115     120     114     115     116     117     118     119     120     115
     116     118     116     117     118     119     120     121     117     118
     119     120     118     119     120     121     120     121     121       0
     123     124     125     126     127     128     133     124     125     126
     125     126     127     128     129     130     131     133     134     135
     126     127     128     133     127     128     129     130     131     132
     133     134     135     136     145     128     129     130     131     133
     134     135     129     130     131     132     133     134     135     130
     131     132     133     131     132     133     132     133       0     134
     135     136     137     138     139     142     145     146     147     135
     136     145     136     137     138     139     140     141     142     143
     144     145     146     147     148     149     137     138     139     140
     141     142     143     144     145     146     147     138     139     140
     141     142     145     139     140     141     142     145     140     141
     142     143     144     145     146     147     141     142     143     144
     145     142     143     144     145     143     144     145     146     147
     148     149     144     145     146     147     145     146     147     146
     147     148     149     150     151     147     148     149     148     149
     150     151     152     153     161     149     150     151     150     151
     152     153     154     155     159     161     162     163     151     152
     153     161     152     153     154     155     156     157     158     159
     160     161     162     163     164     165     153     154     155     159
     161     162     163     154     155     156     157     158     159     160
     161     162     163     155     156     157     158     159     160     161
     156     157     158     159     160     161     157     158     159     158
     159     159     160     161       0     162     163     164     165     166
     167     172     163     164     165     164     165     166     167     168
     169     170     172     173     174     165     166     167     172     166
     167     168     169     170     171     172     173     174     175     184
     167     168     169     170     172     173     174     168     169     170
     171     172     173     174     169     170     171     172     170     171
     172     171     172       0     173     174     175     176     177     178
     181     184     185     186     174     175     184     175     176     177
     178     179     180     181     182     183     184     185     186     187
     188     176     177     178     179     180     181     182     183     184
     185     186     177     178     179     180     181     184     178     179
     180     181     184     179     180     181     182     183     184     185
     186     180     181     182     183     184     181     182     183     184
     182     183     184     185     186     187     188     183     184     185
     186     184     185     186     185     186     187     188     189     190
     186     187     188     187     188     189     190     191     192     200
     188     189     190     189     190     191     192     193     194     195
     200     201     202     190     191     192     200     191     192     193
     194     195     196     197     200     201     202     203     204     192
     193     194     195     200     201     202     193     194     195     196
     197     198     199     200     201     202     194     195     196     197
     200     195     196     197     200     196     197     198     199     200
     197     198     199     198     199     199       0     201     202     203
     204     205     206     221     202     203     204     203     204     205
     206     207     208     209     221     222     223     204     205     206
     221     205     206     207     208     209     210     219     221     222
     223     224     225     206     207     208     209     221     222     223
     207     208     209     210     211     212     217     219     220     221
     222     223     208     209     210     219     221     209     210     219
     221     210     211     212     213     214     217     218     219     220
     221     211     212     213     214     215     217     219     220     212
     213     214     219     213     214     215     216     217     218     219
     214     215     217     215     216     217     218     219     220     216
     217     218     219     217     218     219     220     219     220     220
       0     222     223     224     225     226     227     232     223     224
     225     224     225     226     227     228     229     230     232     233
     234     225     226     227     232     226     227     228     229     230
     231     232     233     234     235     244     227     228     229     230
     232     233     234     228     229     230     231     232     233     234
     229     230     231     232     230     231     232     231     232       0
     233     234     235     236     237     238     241     244     245     246
     234     235     244     235     236     237     238     239     240     241
     242     243     244     245     246     247     248     236     237     238
     239     240     241     242     243     244     245     246     237     238
     239     240     241     244     238     239     240     241     244     239
     240     241     242     243     244     245     246     240     241     242
     243     244     241     242     243     244     242     243     244     245
     246     247     248     243     244     245     246     244     245     246
     245     246     247     248     249     250     246     247     248     247
     248     249     250     251     252     260     248     249     250     249
     250     251     252     253     254     258     260     261     262     250
     251     252     260     251     252     253     254     255     256     257
     258     259     260     261     262     263     264     252     253     254
     258     260     261     262     253     254     255     256     257     258
     259     260     261     262     254     255     256     257     258     259
     260     255     256     257     258     259     260     256     257     258
     257     258     258     259     260       0     261     262     263     264
     265     266     271     262     263     264     263     264     265     266
     267     268     269     271     272     273     264     265     266     271
     265     266     267     268     269     270     271     272     273     274
     283     266     267     268     269     271     272     273     267     268
     269     270     271     272     273     268     269     270     271     269
     270     271     270     271       0     272     273     274     275     276
     277     280     283     284     285     273     274     283     274     275
     276     277     278     279     280     281     282     283     284     285
     286     287     275     276     277     278     279     280     281     282
     283     284     285     276     277     278     279     280     283     277
     278     279     280     283     278     279     280     281     282     283
     284     285     279     280     281     282     283     280     281     282
     283     281     282     283     284     285     286     287     282     283
     284     285     283     284     285     284     285     286     287     288
     289     285     286     287     286     287     288     289     290     291
     296     287     288     289     288     289     290     291     292     293
     294     296     297     298     289     290     291     296     290     291
     292     293     294     295     296     297     298     299     300     291
     292     293     294     296     297     298     292     293     294     295
     296     297     298     293     294     295     296     294     295     296
     295     296       0     297     298     299     300     298     299     300
     299     300     300       0
%FLAG HBOND_ACOEF                                                               
%FORMAT(5E16.8)                                                                 

%FLAG HBOND_BCOEF                                                               
%FORMAT(5E16.8)                                                                 

%FLAG HBCUT                                                                     
%FORMAT(5E16.8)                                                                 

%FLAG AMBER_ATOM_TYPE                                                           
%FORMAT(20a4)                                                                   
HC  CT  HC  HC  C   O   N   H   CT  H1  CT  HC  HC  CA  CA  HA  CA  HA  C   OH  
HO  CA  HA  CA  HA  C   O   N   H   CT  H1  CT  H1  H1  OH  HO  C   O   N   CT  
H1  H1  CT  HC  HC  CT  HC  HC  CT  H1  C   O   N   H   CT  H1  CT  H1  CT  HC  
HC  HC  OH  HO  C   O   N   H   CT  H1  CT  H1  H1  OH  HO  C   O   N   CT  H1  
H1  CT  HC  HC  CT  HC  HC  CT  H1  C   O   N   H   CT  H1  CT  H1  H1  OH  HO  
C   O   N   H   CT  H1  CT  HC  HC  CA  CA  HA  CA  HA  C   OH  HO  CA  HA  CA  
HA  C   O   N   H   CT  H1  CT  H1  H1  OH  HO  C   O   N   CT  H1  H1  CT  HC  
HC  CT  HC  HC  CT  H1  C   O   N   H   CT  H1  CT  H1  CT  HC  HC  HC  OH  HO  
C   O   N   H   CT  H1  CT  H1  H1  OH  HO  C   O   N   CT  H1  H1  CT  HC  HC  
CT  HC  HC  CT  H1  C   O   N   H   CT  H1  CT  HC  HC  C   O   N   H   H   C   
O   N   H   CT  H1  CT  HC  HC  CA  CA  HA  CA  HA  C   OH  HO  CA  HA  CA  HA  
C   O   N   H   CT  H1  CT  H1  H1  OH  HO  C   O   N   CT  H1  H1  CT  HC  HC  
CT  HC  HC  CT  H1  C   O   N   H   CT  H1  CT  H1  CT  HC  HC  HC  OH  HO  C   
O   N   H   CT  H1  CT  H1  H1  OH  HO  C   O   N   CT  H1  H1  CT  HC  HC  CT  
HC  HC  CT  H1  C   O   N   H   CT  H1  CT  H1  H1  OH  HO  C   O   N   H   H   
%FLAG TREE_CHAIN_CLASSIFICATION                                                 
%FORMAT(20a4)                                                                   
BLA BLA BLA BLA BLA BLA M   E   M   E   3   E   E   B   B   E   B   E   B   S   
E   S   E   S   E   M   E   M   E   M   E   3   E   E   S   E   M   E   M   3   
E   E   3   E   E   B   E   E   M   E   M   E   M   E   M   E   3   E   3   E   
E   E   S   E   M   E   M   E   M   E   3   E   E   S   E   M   E   M   3   E   
E   3   E   E   B   E   E   M   E   M   E   M   E   M   E   3   E   E   S   E   
M   E   M   E   M   E   3   E   E   B   B   E   B   E   B   S   E   S   E   S   
E   M   E   M   E   M   E   3   E   E   S   E   M   E   M   3   E   E   3   E   
E   B   E   E   M   E   M   E   M   E   M   E   3   E   3   E   E   E   S   E   
M   E   M   E   M   E   3   E   E   S   E   M   E   M   3   E   E   3   E   E   
B   E   E   M   E   M   E   M   E   M   E   3   E   E   B   E   B   E   E   M   
E   M   E   M   E   3   E   E   B   B   E   B   E   B   S   E   S   E   S   E   
M   E   M   E   M   E   3   E   E   S   E   M   E   M   3   E   E   3   E   E   
B   E   E   M   E   M   E   M   E   M   E   3   E   3   E   E   E   S   E   M   
E   M   E   M   E   3   E   E   S   E   M   E   M   3   E   E   3   E   E   B   
E   E   M   E   M   E   M   E   M   E   3   E   E   S   E   M   E   BLA BLA BLA 
%FLAG JOIN_ARRAY                                                                
%FORMAT(10I8)                                                                   
       0       0       0       0       0       0       0       0       0       0
       0       0       0       0       0       0       0       0       0       0
       0       0       0       0       0       0       0       0       0       0
       0       0       0       0       0       0       0       0       0       0
       0       0       0       0       0       0       0       0       0       0
       0       0       0       0       0       0       0       0       0       0
       0       0       0       0       0       0       0       0       0       0
       0       0       0       0       0       0       0       0       0       0
       0       0       0       0       0       0       0       0       0       0
       0       0       0       0       0       0       0       0       0       0
       0       0       0       0       0       0       0       0       0       0
       0       0       0       0       0       0       0       0       0       0
       0       0       0       0       0       0       0       0       0       0
       0       0       0       0       0       0       0       0       0       0
       0       0       0       0       0       0       0       0       0       0
       0       0       0       0       0       0       0       0       0       0
       0       0       0       0       0       0       0       0       0       0
       0       0       0       0       0       0       0       0       0       0
       0       0       0       0       0       0       0       0       0       0
       0       0       0       0       0       0       0       0       0       0
       0       0       0       0       0       0       0       0       0       0
       0       0       0       0       0       0       0       0       0       0
       0       0       0       0       0       0       0       0       0       0
       0       0       0       0       0       0       0       0       0       0
       0       0       0       0       0       0       0       0       0       0
       0       0       0       0       0       0       0       0       0       0
       0       0       0       0       0       0       0       0       0       0
       0       0       0       0       0       0       0       0       0       0
       0       0       0       0       0       0       0       0       0       0
       0       0       0       0       0       0       0       0       0       0
%FLAG IROTAT                                                                    
%FORMAT(10I8)                                                                   
       0       0       0       0       0       0       0       0       0       0
       0       0       0       0       0       0       0       0       0       0
       0       0       0       0       0       0       0       0       0       0
       0       0       0       0       0       0       0       0       0       0
       0       0       0       0       0       0       0       0       0       0
       0       0       0       0       0       0       0       0       0       0
       0       0       0       0       0       0       0       0       0       0
       0       0       0       0       0       0       0       0       0       0
       0       0       0       0       0       0       0       0       0       0
       0       0       0       0       0       0       0       0       0       0
       0       0       0       0       0       0       0       0       0       0
       0       0       0       0       0       0       0       0       0       0
       0       0       0       0       0       0       0       0       0       0
       0       0       0       0       0       0       0       0       0       0
       0       0       0       0       0       0       0       0       0       0
       0       0       0       0       0       0       0       0       0       0
       0       0       0       0       0       0       0       0       0       0
       0       0       0       0       0       0       0       0       0       0
       0       0       0       0       0       0       0       0       0       0
       0       0       0       0       0       0       0       0       0       0
       0       0       0       0       0       0       0       0       0       0
       0       0       0       0       0       0       0       0       0       0
       0       0       0       0       0       0       0       0       0       0
       0       0       0       0       0       0       0       0       0       0
       0       0       0       0       0       0       0       0       0       0
       0       0       0       0       0       0       0       0       0       0
       0       0       0       0       0       0       0       0       0       0
       0       0       0       0       0       0       0       0       0       0
       0       0       0       0       0       0       0       0       0       0
       0       0       0       0       0       0       0       0       0       0
%FLAG RADIUS_SET                                                                
%FORMAT(1a80)                                                                   
modified Bondi radii (mbondi)                                                   
%FLAG RADII                                                                     
%FORMAT(5E16.8)                                                                 
  1.30000000E+00  1.70000000E+00  1.30000000E+00  1.30000000E+00  1.70000000E+00
  1.50000000E+00  1.55000000E+00  1.30000000E+00  1.70000000E+00  1.30000000E+00
  1.70000000E+00  1.30000000E+00  1.30000000E+00  1.70000000E+00  1.70000000E+00
  1.30000000E+00  1.70000000E+00  1.30000000E+00  1.70000000E+00  1.50000000E+00
  8.00000000E-01  1.70000000E+00  1.30000000E+00  1.70000000E+00  1.30000000E+00
  1.70000000E+00  1.50000000E+00  1.55000000E+00  1.30000000E+00  1.70000000E+00
  1.30000000E+00  1.70000000E+00  1.30000000E+00  1.30000000E+00  1.50000000E+00
  8.00000000E-01  1.70000000E+00  1.50000000E+00  1.55000000E+00  1.70000000E+00
  1.30000000E+00  1.30000000E+00  1.70000000E+00  1.30000000E+00  1.30000000E+00
  1.70000000E+00  1.30000000E+00  1.30000000E+00  1.70000000E+00  1.30000000E+00
  1.70000000E+00  1.50000000E+00  1.55000000E+00  1.30000000E+00  1.70000000E+00
  1.30000000E+00  1.70000000E+00  1.30000000E+00  1.70000000E+00  1.30000000E+00
  1.30000000E+00  1.30000000E+00  1.50000000E+00  8.00000000E-01  1.70000000E+00
  1.50000000E+00  1.55000000E+00  1.30000000E+00  1.70000000E+00  1.30000000E+00
  1.70000000E+00  1.30000000E+00  1.30000000E+00  1.50000000E+00  8.00000000E-01
  1.70000000E+00  1.50000000E+00  1.55000000E+00  1.70000000E+00  1.30000000E+00
  1.30000000E+00  1.70000000E+00  1.30000000E+00  1.30000000E+00  1.70000000E+00
  1.30000000E+00  1.30000000E+00  1.70000000E+00  1.30000000E+00  1.70000000E+00
  1.50000000E+00  1.55000000E+00  1.30000000E+00  1.70000000E+00  1.30000000E+00
  1.70000000E+00  1.30000000E+00  1.30000000E+00  1.50000000E+00  8.00000000E-01
  1.70000000E+00  1.50000000E+00  1.55000000E+00  1.30000000E+00  1.70000000E+00
  1.30000000E+00  1.70000000E+00  1.30000000E+00  1.30000000E+00  1.70000000E+00
  1.70000000E+00  1.30000000E+00  1.70000000E+00  1.30000000E+00  1.70000000E+00
  1.50000000E+00  8.00000000E-01  1.70000000E+00  1.30000000E+00  1.70000000E+00
  1.30000000E+00  1.70000000E+00  1.50000000E+00  1.55000000E+00  1.30000000E+00
  1.70000000E+00  1.30000000E+00  1.70000000E+00  1.30000000E+00  1.30000000E+00
  1.50000000E+00  8.00000000E-01  1.70000000E+00  1.50000000E+00  1.55000000E+00
  1.70000000E+00  1.30000000E+00  1.30000000E+00  1.70000000E+00  1.30000000E+00
  1.30000000E+00  1.70000000E+00  1.30000000E+00  1.30000000E+00  1.70000000E+00
  1.30000000E+00  1.70000000E+00  1.50000000E+00  1.55000000E+00  1.30000000E+00
  1.70000000E+00  1.30000000E+00  1.70000000E+00  1.30000000E+00  1.70000000E+00
  1.30000000E+00  1.30000000E+00  1.30000000E+00  1.50000000E+00  8.00000000E-01
  1.70000000E+00  1.50000000E+00  1.55000000E+00  1.30000000E+00  1.70000000E+00
  1.30000000E+00  1.70000000E+00  1.30000000E+00  1.30000000E+00  1.50000000E+00
  8.00000000E-01  1.70000000E+00  1.50000000E+00  1.55000000E+00  1.70000000E+00
  1.30000000E+00  1.30000000E+00  1.70000000E+00  1.30000000E+00  1.30000000E+00
  1.70000000E+00  1.30000000E+00  1.30000000E+00  1.70000000E+00  1.30000000E+00
  1.70000000E+00  1.50000000E+00  1.55000000E+00  1.30000000E+00  1.70000000E+00
  1.30000000E+00  1.70000000E+00  1.30000000E+00  1.30000000E+00  1.70000000E+00
  1.50000000E+00  1.55000000E+00  1.30000000E+00  1.30000000E+00  1.70000000E+00
  1.50000000E+00  1.55000000E+00  1.30000000E+00  1.70000000E+00  1.30000000E+00
  1.70000000E+00  1.30000000E+00  1.30000000E+00  1.70000000E+00  1.70000000E+00
  1.30000000E+00  1.70000000E+00  1.30000000E+00  1.70000000E+00  1.50000000E+00
  8.00000000E-01  1.70000000E+00  1.30000000E+00  1.70000000E+00  1.30000000E+00
  1.70000000E+00  1.50000000E+00  1.55000000E+00  1.30000000E+00  1.70000000E+00
  1.30000000E+00  1.70000000E+00  1.30000000E+00  1.30000000E+00  1.50000000E+00
  8.00000000E-01  1.70000000E+00  1.50000000E+00  1.55000000E+00  1.70000000E+00
  1.30000000E+00  1.30000000E+00  1.70000000E+00  1.30000000E+00  1.30000000E+00
  1.70000000E+00  1.30000000E+00  1.30000000E+00  1.70000000E+00  1.30000000E+00
  1.70000000E+00  1.50000000E+00  1.55000000E+00  1.30000000E+00  1.70000000E+00
  1.30000000E+00  1.70000000E+00  1.30000000E+00  1.70000000E+00  1.30000000E+00
  1.30000000E+00  1.30000000E+00  1.50000000E+00  8.00000000E-01  1.70000000E+00
  1.50000000E+00  1.55000000E+00  1.30000000E+00  1.70000000E+00  1.30000000E+00
  1.70000000E+00  1.30000000E+00  1.30000000E+00  1.50000000E+00  8.00000000E-01
  1.70000000E+00  1.50000000E+00  1.55000000E+00  1.70000000E+00  1.30000000E+00
  1.30000000E+00  1.70000000E+00  1.30000000E+00  1.30000000E+00  1.70000000E+00
  1.30000000E+00  1.30000000E+00  1.70000000E+00  1.30000000E+00  1.70000000E+00
  1.50000000E+00  1.55000000E+00  1.30000000E+00  1.70000000E+00  1.30000000E+00
  1.70000000E+00  1.30000000E+00  1.30000000E+00  1.50000000E+00  8.00000000E-01
  1.70000000E+00  1.50000000E+00  1.55000000E+00  1.30000000E+00  1.30000000E+00
%FLAG SCREEN                                                                    
%FORMAT(5E16.8)                                                                 
  8.50000000E-01  7.20000000E-01  8.50000000E-01  8.50000000E-01  7.20000000E-01
  8.50000000E-01  7.90000000E-01  8.50000000E-01  7.20000000E-01  8.50000000E-01
  7.20000000E-01  8.50000000E-01  8.50000000E-01  7.20000000E-01  7.20000000E-01
  8.50000000E-01  7.20000000E-01  8.50000000E-01  7.20000000E-01  8.50000000E-01
  8.50000000E-01  7.20000000E-01  8.50000000E-01  7.20000000E-01  8.50000000E-01
  7.20000000E-01  8.50000000E-01  7.90000000E-01  8.50000000E-01  7.20000000E-01
  8.50000000E-01  7.20000000E-01  8.50000000E-01  8.50000000E-01  8.50000000E-01
  8.50000000E-01  7.20000000E-01  8.50000000E-01  7.90000000E-01  7.20000000E-01
  8.50000000E-01  8.50000000E-01  7.20000000E-01  8.50000000E-01  8.50000000E-01
  7.20000000E-01  8.50000000E-01  8.50000000E-01  7.20000000E-01  8.50000000E-01
  7.20000000E-01  8.50000000E-01  7.90000000E-01  8.50000000E-01  7.20000000E-01
  8.50000000E-01  7.20000000E-01  8.50000000E-01  7.20000000E-01  8.50000000E-01
  8.50000000E-01  8.50000000E-01  8.50000000E-01  8.50000000E-01  7.20000000E-01
  8.50000000E-01  7.90000000E-01  8.50000000E-01  7.20000000E-01  8.50000000E-01
  7.20000000E-01  8.50000000E-01  8.50000000E-01  8.50000000E-01  8.50000000E-01
  7.20000000E-01  8.50000000E-01  7.90000000E-01  7.20000000E-01  8.50000000E-01
  8.50000000E-01  7.20000000E-01  8.50000000E-01  8.50000000E-01  7.20000000E-01
  8.50000000E-01  8.50000000E-01  7.20000000E-01  8.50000000E-01  7.20000000E-01
  8.50000000E-01  7.90000000E-01  8.50000000E-01  7.20000000E-01  8.50000000E-01
  7.20000000E-01  8.50000000E-01  8.50000000E-01  8.50000000E-01  8.50000000E-01
  7.20000000E-01  8.50000000E-01  7.90000000E-01  8.50000000E-01  7.20000000E-01
  8.50000000E-01  7.20000000E-01  8.50000000E-01  8.50000000E-01  7.20000000E-01
  7.20000000E-01  8.50000000E-01  7.20000000E-01  8.50000000E-01  7.20000000E-01
  8.50000000E-01  8.50000000E-01  7.20000000E-01  8.50000000E-01  7.20000000E-01
  8.50000000E-01  7.20000000E-01  8.50000000E-01  7.90000000E-01  8.50000000E-01
  7.20000000E-01  8.50000000E-01  7.20000000E-01  8.50000000E-01  8.50000000E-01
  8.50000000E-01  8.50000000E-01  7.20000000E-01  8.50000000E-01  7.90000000E-01
  7.20000000E-01  8.50000000E-01  8.50000000E-01  7.20000000E-01  8.50000000E-01
  8.50000000E-01  7.20000000E-01  8.50000000E-01  8.50000000E-01  7.20000000E-01
  8.50000000E-01  7.20000000E-01  8.50000000E-01  7.90000000E-01  8.50000000E-01
  7.20000000E-01  8.50000000E-01  7.20000000E-01  8.50000000E-01  7.20000000E-01
  8.50000000E-01  8.50000000E-01  8.50000000E-01  8.50000000E-01  8.50000000E-01
  7.20000000E-01  8.50000000E-01  7.90000000E-01  8.50000000E-01  7.20000000E-01
  8.50000000E-01  7.20000000E-01  8.50000000E-01  8.50000000E-01  8.50000000E-01
  8.50000000E-01  7.20000000E-01  8.50000000E-01  7.90000000E-01  7.20000000E-01
  8.50000000E-01  8.50000000E-01  7.20000000E-01  8.50000000E-01  8.50000000E-01
  7.20000000E-01  8.50000000E-01  8.50000000E-01  7.20000000E-01  8.50000000E-01
  7.20000000E-01  8.50000000E-01  7.90000000E-01  8.50000000E-01  7.20000000E-01
  8.50000000E-01  7.20000000E-01  8.50000000E-01  8.50000000E-01  7.20000000E-01
  8.50000000E-01  7.90000000E-01  8.50000000E-01  8.50000000E-01  7.20000000E-01
  8.50000000E-01  7.90000000E-01  8.50000000E-01  7.20000000E-01  8.50000000E-01
  7.20000000E-01  8.50000000E-01  8.50000000E-01  7.20000000E-01  7.20000000E-01
  8.50000000E-01  7.20000000E-01  8.50000000E-01  7.20000000E-01  8.50000000E-01
  8.50000000E-01  7.20000000E-01  8.50000000E-01  7.20000000E-01  8.50000000E-01
  7.20000000E-01  8.50000000E-01  7.90000000E-01  8.50000000E-01  7.20000000E-01
  8.50000000E-01  7.20000000E-01  8.50000000E-01  8.50000000E-01  8.50000000E-01
  8.50000000E-01  7.20000000E-01  8.50000000E-01  7.90000000E-01  7.20000000E-01
  8.50000000E-01  8.50000000E-01  7.20000000E-01  8.50000000E-01  8.50000000E-01
  7.20000000E-01  8.50000000E-01  8.50000000E-01  7.20000000E-01  8.50000000E-01
  7.20000000E-01  8.50000000E-01  7.90000000E-01  8.50000000E-01  7.20000000E-01
  8.50000000E-01  7.20000000E-01  8.50000000E-01  7.20000000E-01  8.50000000E-01
  8.50000000E-01  8.50000000E-01  8.50000000E-01  8.50000000E-01  7.20000000E-01
  8.50000000E-01  7.90000000E-01  8.50000000E-01  7.20000000E-01  8.50000000E-01
  7.20000000E-01  8.50000000E-01  8.50000000E-01  8.50000000E-01  8.50000000E-01
  7.20000000E-01  8.50000000E-01  7.90000000E-01  7.20000000E-01  8.50000000E-01
  8.50000000E-01  7.20000000E-01  8.50000000E-01  8.50000000E-01  7.20000000E-01
  8.50000000E-01  8.50000000E-01  7.20000000E-01  8.50000000E-01  7.20000000E-01
  8.50000000E-01  7.90000000E-01  8.50000000E-01  7.20000000E-01  8.50000000E-01
  7.20000000E-01  8.50000000E-01  8.50000000E-01  8.50000000E-01  8.50000000E-01
  7.20000000E-01  8.50000000E-01  7.90000000E-01  8.50000000E-01  8.50000000E-01
%FLAG IPOL                                                                      
%FORMAT(1I8)                                                                    
       0
