%VERSION  VERSION_STAMP = V0001.000  DATE = 05/31/23  09:20:26                  
%FLAG TITLE                                                                     
%FORMAT(20a4)                                                                   
default_name                                                                    
%FLAG POINTERS                                                                  
%FORMAT(10I8)                                                                   
     297      10     140     165     318     231     667     616       0       0
    1669      23     165     231     616      15      32      32      11       0
       0       0       0       0       0       0       0       0      21       0
       0
%FLAG ATOM_NAME                                                                 
%FORMAT(20a4)                                                                   
HH31CH3 HH32HH33C   O   N   H   CA  HA  CB  HB2 HB3 CG  CD1 HD1 CE1 HE1 CZ  OH  
HH  CE2 HE2 CD2 HD2 C   O   N   H   CA  HA  CB  HB2 HB3 OG  HG  C   O   N   CD  
HD2 HD3 CG  HG2 HG3 CB  HB2 HB3 CA  HA  C   O   N   H   CA  HA  CB  HB  CG2 HG21
HG22HG23OG1 HG1 C   O   N   H   CA  HA  CB  HB2 HB3 OG  HG  C   O   N   CD  HD2 
HD3 CG  HG2 HG3 CB  HB2 HB3 CA  HA  C   O   N   H   CA  HA  CB  HB2 HB3 OG  HG  
C   O   N   H   CA  HA  CB  HB2 HB3 CG  CD1 HD1 CE1 HE1 CZ  OH  HH  CE2 HE2 CD2 
HD2 C   O   N   H   CA  HA  CB  HB2 HB3 OG  HG  C   O   N   CD  HD2 HD3 CG  HG2 
HG3 CB  HB2 HB3 CA  HA  C   O   N   H   CA  HA  CB  HB  CG2 HG21HG22HG23OG1 HG1 
C   O   N   H   CA  HA  CB  HB2 HB3 OG  HG  C   O   N   CD  HD2 HD3 CG  HG2 HG3 
CB  HB2 HB3 CA  HA  C   O   N   H   CA  HA  CB  HB2 HB3 OG  HG  C   O   N   H   
CA  HA  CB  HB2 HB3 CG  CD1 HD1 CE1 HE1 CZ  OH  HH  CE2 HE2 CD2 HD2 C   O   N   
H   CA  HA  CB  HB2 HB3 OG  HG  C   O   N   CD  HD2 HD3 CG  HG2 HG3 CB  HB2 HB3 
CA  HA  C   O   N   H   CA  HA  CB  HB  CG2 HG21HG22HG23OG1 HG1 C   O   N   H   
CA  HA  CB  HB2 HB3 OG  HG  C   O   N   CD  HD2 HD3 CG  HG2 HG3 CB  HB2 HB3 CA  
HA  C   O   N   H   CA  HA  CB  HB2 HB3 OG  HG  C   O   N   HN1 HN2 
%FLAG CHARGE                                                                    
%FORMAT(5E16.8)                                                                 
  2.04636429E+00 -6.67300626E+00  2.04636429E+00  2.04636429E+00  1.08823576E+01
 -1.03484442E+01 -7.57501011E+00  4.95464337E+00 -2.55112200E-02  1.59627348E+00
 -2.76978960E-01  5.37557850E-01  5.37557850E-01 -2.00445300E-02 -3.47317038E+00
  3.09596877E+00 -4.26584043E+00  3.01761288E+00  5.87851398E+00 -1.01662212E+01
  7.27434216E+00 -4.26584043E+00  3.01761288E+00 -3.47317038E+00  3.09596877E+00
  1.08841798E+01 -1.03484442E+01 -7.57501011E+00  4.95464337E+00 -4.53735270E-01
  1.53613989E+00  3.85766091E+00  6.41424960E-01  6.41424960E-01 -1.19283176E+01
  7.79003325E+00  1.08841798E+01 -1.03484442E+01 -4.64304204E+00  3.49868160E-01
  7.12491930E-01  7.12491930E-01  3.44401470E-01  3.88134990E-01  3.88134990E-01
 -1.27556100E-01  4.61024190E-01  4.61024190E-01 -4.84713180E-01  1.16804943E+00
  1.07438681E+01 -1.04741780E+01 -7.57501011E+00  4.95464337E+00 -7.08847470E-01
  1.83498561E+00  6.65842842E+00  7.83558900E-02 -4.44259674E+00  1.16987166E+00
  1.16987166E+00  1.16987166E+00 -1.23200970E+01  7.47478746E+00  1.08841798E+01
 -1.03484442E+01 -7.57501011E+00  4.95464337E+00 -4.53735270E-01  1.53613989E+00
  3.85766091E+00  6.41424960E-01  6.41424960E-01 -1.19283176E+01  7.79003325E+00
  1.08841798E+01 -1.03484442E+01 -4.64304204E+00  3.49868160E-01  7.12491930E-01
  7.12491930E-01  3.44401470E-01  3.88134990E-01  3.88134990E-01 -1.27556100E-01
  4.61024190E-01  4.61024190E-01 -4.84713180E-01  1.16804943E+00  1.07438681E+01
 -1.04741780E+01 -7.57501011E+00  4.95464337E+00 -4.53735270E-01  1.53613989E+00
  3.85766091E+00  6.41424960E-01  6.41424960E-01 -1.19283176E+01  7.79003325E+00
  1.08841798E+01 -1.03484442E+01 -7.57501011E+00  4.95464337E+00 -2.55112200E-02
  1.59627348E+00 -2.76978960E-01  5.37557850E-01  5.37557850E-01 -2.00445300E-02
 -3.47317038E+00  3.09596877E+00 -4.26584043E+00  3.01761288E+00  5.87851398E+00
 -1.01662212E+01  7.27434216E+00 -4.26584043E+00  3.01761288E+00 -3.47317038E+00
  3.09596877E+00  1.08841798E+01 -1.03484442E+01 -7.57501011E+00  4.95464337E+00
 -4.53735270E-01  1.53613989E+00  3.85766091E+00  6.41424960E-01  6.41424960E-01
 -1.19283176E+01  7.79003325E+00  1.08841798E+01 -1.03484442E+01 -4.64304204E+00
  3.49868160E-01  7.12491930E-01  7.12491930E-01  3.44401470E-01  3.88134990E-01
  3.88134990E-01 -1.27556100E-01  4.61024190E-01  4.61024190E-01 -4.84713180E-01
  1.16804943E+00  1.07438681E+01 -1.04741780E+01 -7.57501011E+00  4.95464337E+00
 -7.08847470E-01  1.83498561E+00  6.65842842E+00  7.83558900E-02 -4.44259674E+00
  1.16987166E+00  1.16987166E+00  1.16987166E+00 -1.23200970E+01  7.47478746E+00
  1.08841798E+01 -1.03484442E+01 -7.57501011E+00  4.95464337E+00 -4.53735270E-01
  1.53613989E+00  3.85766091E+00  6.41424960E-01  6.41424960E-01 -1.19283176E+01
  7.79003325E+00  1.08841798E+01 -1.03484442E+01 -4.64304204E+00  3.49868160E-01
  7.12491930E-01  7.12491930E-01  3.44401470E-01  3.88134990E-01  3.88134990E-01
 -1.27556100E-01  4.61024190E-01  4.61024190E-01 -4.84713180E-01  1.16804943E+00
  1.07438681E+01 -1.04741780E+01 -7.57501011E+00  4.95464337E+00 -4.53735270E-01
  1.53613989E+00  3.85766091E+00  6.41424960E-01  6.41424960E-01 -1.19283176E+01
  7.79003325E+00  1.08841798E+01 -1.03484442E+01 -7.57501011E+00  4.95464337E+00
 -2.55112200E-02  1.59627348E+00 -2.76978960E-01  5.37557850E-01  5.37557850E-01
 -2.00445300E-02 -3.47317038E+00  3.09596877E+00 -4.26584043E+00  3.01761288E+00
  5.87851398E+00 -1.01662212E+01  7.27434216E+00 -4.26584043E+00  3.01761288E+00
 -3.47317038E+00  3.09596877E+00  1.08841798E+01 -1.03484442E+01 -7.57501011E+00
  4.95464337E+00 -4.53735270E-01  1.53613989E+00  3.85766091E+00  6.41424960E-01
  6.41424960E-01 -1.19283176E+01  7.79003325E+00  1.08841798E+01 -1.03484442E+01
 -4.64304204E+00  3.49868160E-01  7.12491930E-01  7.12491930E-01  3.44401470E-01
  3.88134990E-01  3.88134990E-01 -1.27556100E-01  4.61024190E-01  4.61024190E-01
 -4.84713180E-01  1.16804943E+00  1.07438681E+01 -1.04741780E+01 -7.57501011E+00
  4.95464337E+00 -7.08847470E-01  1.83498561E+00  6.65842842E+00  7.83558900E-02
 -4.44259674E+00  1.16987166E+00  1.16987166E+00  1.16987166E+00 -1.23200970E+01
  7.47478746E+00  1.08841798E+01 -1.03484442E+01 -7.57501011E+00  4.95464337E+00
 -4.53735270E-01  1.53613989E+00  3.85766091E+00  6.41424960E-01  6.41424960E-01
 -1.19283176E+01  7.79003325E+00  1.08841798E+01 -1.03484442E+01 -4.64304204E+00
  3.49868160E-01  7.12491930E-01  7.12491930E-01  3.44401470E-01  3.88134990E-01
  3.88134990E-01 -1.27556100E-01  4.61024190E-01  4.61024190E-01 -4.84713180E-01
  1.16804943E+00  1.07438681E+01 -1.04741780E+01 -7.57501011E+00  4.95464337E+00
 -4.53735270E-01  1.53613989E+00  3.85766091E+00  6.41424960E-01  6.41424960E-01
 -1.19283176E+01  7.79003325E+00  1.08841798E+01 -1.03484442E+01 -8.43692490E+00
  4.21846245E+00  4.21846245E+00
%FLAG ATOMIC_NUMBER                                                             
%FORMAT(10I8)                                                                   
       1       6       1       1       6       8       7       1       6       1
       6       1       1       6       6       1       6       1       6       8
       1       6       1       6       1       6       8       7       1       6
       1       6       1       1       8       1       6       8       7       6
       1       1       6       1       1       6       1       1       6       1
       6       8       7       1       6       1       6       1       6       1
       1       1       8       1       6       8       7       1       6       1
       6       1       1       8       1       6       8       7       6       1
       1       6       1       1       6       1       1       6       1       6
       8       7       1       6       1       6       1       1       8       1
       6       8       7       1       6       1       6       1       1       6
       6       1       6       1       6       8       1       6       1       6
       1       6       8       7       1       6       1       6       1       1
       8       1       6       8       7       6       1       1       6       1
       1       6       1       1       6       1       6       8       7       1
       6       1       6       1       6       1       1       1       8       1
       6       8       7       1       6       1       6       1       1       8
       1       6       8       7       6       1       1       6       1       1
       6       1       1       6       1       6       8       7       1       6
       1       6       1       1       8       1       6       8       7       1
       6       1       6       1       1       6       6       1       6       1
       6       8       1       6       1       6       1       6       8       7
       1       6       1       6       1       1       8       1       6       8
       7       6       1       1       6       1       1       6       1       1
       6       1       6       8       7       1       6       1       6       1
       6       1       1       1       8       1       6       8       7       1
       6       1       6       1       1       8       1       6       8       7
       6       1       1       6       1       1       6       1       1       6
       1       6       8       7       1       6       1       6       1       1
       8       1       6       8       7       1       1
%FLAG MASS                                                                      
%FORMAT(5E16.8)                                                                 
  1.00800000E+00  1.20100000E+01  1.00800000E+00  1.00800000E+00  1.20100000E+01
  1.60000000E+01  1.40100000E+01  1.00800000E+00  1.20100000E+01  1.00800000E+00
  1.20100000E+01  1.00800000E+00  1.00800000E+00  1.20100000E+01  1.20100000E+01
  1.00800000E+00  1.20100000E+01  1.00800000E+00  1.20100000E+01  1.60000000E+01
  1.00800000E+00  1.20100000E+01  1.00800000E+00  1.20100000E+01  1.00800000E+00
  1.20100000E+01  1.60000000E+01  1.40100000E+01  1.00800000E+00  1.20100000E+01
  1.00800000E+00  1.20100000E+01  1.00800000E+00  1.00800000E+00  1.60000000E+01
  1.00800000E+00  1.20100000E+01  1.60000000E+01  1.40100000E+01  1.20100000E+01
  1.00800000E+00  1.00800000E+00  1.20100000E+01  1.00800000E+00  1.00800000E+00
  1.20100000E+01  1.00800000E+00  1.00800000E+00  1.20100000E+01  1.00800000E+00
  1.20100000E+01  1.60000000E+01  1.40100000E+01  1.00800000E+00  1.20100000E+01
  1.00800000E+00  1.20100000E+01  1.00800000E+00  1.20100000E+01  1.00800000E+00
  1.00800000E+00  1.00800000E+00  1.60000000E+01  1.00800000E+00  1.20100000E+01
  1.60000000E+01  1.40100000E+01  1.00800000E+00  1.20100000E+01  1.00800000E+00
  1.20100000E+01  1.00800000E+00  1.00800000E+00  1.60000000E+01  1.00800000E+00
  1.20100000E+01  1.60000000E+01  1.40100000E+01  1.20100000E+01  1.00800000E+00
  1.00800000E+00  1.20100000E+01  1.00800000E+00  1.00800000E+00  1.20100000E+01
  1.00800000E+00  1.00800000E+00  1.20100000E+01  1.00800000E+00  1.20100000E+01
  1.60000000E+01  1.40100000E+01  1.00800000E+00  1.20100000E+01  1.00800000E+00
  1.20100000E+01  1.00800000E+00  1.00800000E+00  1.60000000E+01  1.00800000E+00
  1.20100000E+01  1.60000000E+01  1.40100000E+01  1.00800000E+00  1.20100000E+01
  1.00800000E+00  1.20100000E+01  1.00800000E+00  1.00800000E+00  1.20100000E+01
  1.20100000E+01  1.00800000E+00  1.20100000E+01  1.00800000E+00  1.20100000E+01
  1.60000000E+01  1.00800000E+00  1.20100000E+01  1.00800000E+00  1.20100000E+01
  1.00800000E+00  1.20100000E+01  1.60000000E+01  1.40100000E+01  1.00800000E+00
  1.20100000E+01  1.00800000E+00  1.20100000E+01  1.00800000E+00  1.00800000E+00
  1.60000000E+01  1.00800000E+00  1.20100000E+01  1.60000000E+01  1.40100000E+01
  1.20100000E+01  1.00800000E+00  1.00800000E+00  1.20100000E+01  1.00800000E+00
  1.00800000E+00  1.20100000E+01  1.00800000E+00  1.00800000E+00  1.20100000E+01
  1.00800000E+00  1.20100000E+01  1.60000000E+01  1.40100000E+01  1.00800000E+00
  1.20100000E+01  1.00800000E+00  1.20100000E+01  1.00800000E+00  1.20100000E+01
  1.00800000E+00  1.00800000E+00  1.00800000E+00  1.60000000E+01  1.00800000E+00
  1.20100000E+01  1.60000000E+01  1.40100000E+01  1.00800000E+00  1.20100000E+01
  1.00800000E+00  1.20100000E+01  1.00800000E+00  1.00800000E+00  1.60000000E+01
  1.00800000E+00  1.20100000E+01  1.60000000E+01  1.40100000E+01  1.20100000E+01
  1.00800000E+00  1.00800000E+00  1.20100000E+01  1.00800000E+00  1.00800000E+00
  1.20100000E+01  1.00800000E+00  1.00800000E+00  1.20100000E+01  1.00800000E+00
  1.20100000E+01  1.60000000E+01  1.40100000E+01  1.00800000E+00  1.20100000E+01
  1.00800000E+00  1.20100000E+01  1.00800000E+00  1.00800000E+00  1.60000000E+01
  1.00800000E+00  1.20100000E+01  1.60000000E+01  1.40100000E+01  1.00800000E+00
  1.20100000E+01  1.00800000E+00  1.20100000E+01  1.00800000E+00  1.00800000E+00
  1.20100000E+01  1.20100000E+01  1.00800000E+00  1.20100000E+01  1.00800000E+00
  1.20100000E+01  1.60000000E+01  1.00800000E+00  1.20100000E+01  1.00800000E+00
  1.20100000E+01  1.00800000E+00  1.20100000E+01  1.60000000E+01  1.40100000E+01
  1.00800000E+00  1.20100000E+01  1.00800000E+00  1.20100000E+01  1.00800000E+00
  1.00800000E+00  1.60000000E+01  1.00800000E+00  1.20100000E+01  1.60000000E+01
  1.40100000E+01  1.20100000E+01  1.00800000E+00  1.00800000E+00  1.20100000E+01
  1.00800000E+00  1.00800000E+00  1.20100000E+01  1.00800000E+00  1.00800000E+00
  1.20100000E+01  1.00800000E+00  1.20100000E+01  1.60000000E+01  1.40100000E+01
  1.00800000E+00  1.20100000E+01  1.00800000E+00  1.20100000E+01  1.00800000E+00
  1.20100000E+01  1.00800000E+00  1.00800000E+00  1.00800000E+00  1.60000000E+01
  1.00800000E+00  1.20100000E+01  1.60000000E+01  1.40100000E+01  1.00800000E+00
  1.20100000E+01  1.00800000E+00  1.20100000E+01  1.00800000E+00  1.00800000E+00
  1.60000000E+01  1.00800000E+00  1.20100000E+01  1.60000000E+01  1.40100000E+01
  1.20100000E+01  1.00800000E+00  1.00800000E+00  1.20100000E+01  1.00800000E+00
  1.00800000E+00  1.20100000E+01  1.00800000E+00  1.00800000E+00  1.20100000E+01
  1.00800000E+00  1.20100000E+01  1.60000000E+01  1.40100000E+01  1.00800000E+00
  1.20100000E+01  1.00800000E+00  1.20100000E+01  1.00800000E+00  1.00800000E+00
  1.60000000E+01  1.00800000E+00  1.20100000E+01  1.60000000E+01  1.40100000E+01
  1.00800000E+00  1.00800000E+00
%FLAG ATOM_TYPE_INDEX                                                           
%FORMAT(10I8)                                                                   
       1       2       1       1       3       4       5       6       2       7
       2       1       1       3       3       8       3       8       3       9
      10       3       8       3       8       3       4       5       6       2
       7       2       7       7       9      10       3       4       5       2
       7       7       2       1       1       2       1       1       2       7
       3       4       5       6       2       7       2       7       2       1
       1       1       9      10       3       4       5       6       2       7
       2       7       7       9      10       3       4       5       2       7
       7       2       1       1       2       1       1       2       7       3
       4       5       6       2       7       2       7       7       9      10
       3       4       5       6       2       7       2       1       1       3
       3       8       3       8       3       9      10       3       8       3
       8       3       4       5       6       2       7       2       7       7
       9      10       3       4       5       2       7       7       2       1
       1       2       1       1       2       7       3       4       5       6
       2       7       2       7       2       1       1       1       9      10
       3       4       5       6       2       7       2       7       7       9
      10       3       4       5       2       7       7       2       1       1
       2       1       1       2       7       3       4       5       6       2
       7       2       7       7       9      10       3       4       5       6
       2       7       2       1       1       3       3       8       3       8
       3       9      10       3       8       3       8       3       4       5
       6       2       7       2       7       7       9      10       3       4
       5       2       7       7       2       1       1       2       1       1
       2       7       3       4       5       6       2       7       2       7
       2       1       1       1       9      10       3       4       5       6
       2       7       2       7       7       9      10       3       4       5
       2       7       7       2       1       1       2       1       1       2
       7       3       4       5       6       2       7       2       7       7
       9      10       3       4       5       6       6
%FLAG NUMBER_EXCLUDED_ATOMS                                                     
%FORMAT(10I8)                                                                   
       6       7       4       3       7       3      10       4      12       7
      12       5       4      10       8       4       7       3       6       4
       1       3       2       1       1       7       3      10       4      11
       7       7       4       3       2       1      10       3      14      11
       6       5       8       5       4       7       4       3       6       3
       7       3      10       4      14       7      10       7       6       3
       2       1       2       1       7       3      10       4      11       7
       7       4       3       2       1      10       3      14      11       6
       5       8       5       4       7       4       3       6       3       7
       3      10       4      11       7       7       4       3       2       1
       7       3      10       4      12       7      12       5       4      10
       8       4       7       3       6       4       1       3       2       1
       1       7       3      10       4      11       7       7       4       3
       2       1      10       3      14      11       6       5       8       5
       4       7       4       3       6       3       7       3      10       4
      14       7      10       7       6       3       2       1       2       1
       7       3      10       4      11       7       7       4       3       2
       1      10       3      14      11       6       5       8       5       4
       7       4       3       6       3       7       3      10       4      11
       7       7       4       3       2       1       7       3      10       4
      12       7      12       5       4      10       8       4       7       3
       6       4       1       3       2       1       1       7       3      10
       4      11       7       7       4       3       2       1      10       3
      14      11       6       5       8       5       4       7       4       3
       6       3       7       3      10       4      14       7      10       7
       6       3       2       1       2       1       7       3      10       4
      11       7       7       4       3       2       1      10       3      14
      11       6       5       8       5       4       7       4       3       6
       3       7       3      10       4      11       7       7       4       3
       2       1       4       3       2       1       1
%FLAG NONBONDED_PARM_INDEX                                                      
%FORMAT(10I8)                                                                   
       1       2       4       7      11      16      22      29      37      46
       2       3       5       8      12      17      23      30      38      47
       4       5       6       9      13      18      24      31      39      48
       7       8       9      10      14      19      25      32      40      49
      11      12      13      14      15      20      26      33      41      50
      16      17      18      19      20      21      27      34      42      51
      22      23      24      25      26      27      28      35      43      52
      29      30      31      32      33      34      35      36      44      53
      37      38      39      40      41      42      43      44      45      54
      46      47      48      49      50      51      52      53      54      55
%FLAG RESIDUE_LABEL                                                             
%FORMAT(20a4)                                                                   
ACE TYR SER PRO THR SER PRO SER TYR SER PRO THR SER PRO SER TYR SER PRO THR SER 
PRO SER NHE 
%FLAG RESIDUE_POINTER                                                           
%FORMAT(10I8)                                                                   
       1       7      28      39      53      67      78      92     103     124
     135     149     163     174     188     199     220     231     245     259
     270     284     295
%FLAG BOND_FORCE_CONSTANT                                                       
%FORMAT(5E16.8)                                                                 
  5.70000000E+02  4.90000000E+02  3.40000000E+02  3.17000000E+02  3.67000000E+02
  4.69000000E+02  5.53000000E+02  4.50000000E+02  4.69000000E+02  3.17000000E+02
  3.40000000E+02  3.10000000E+02  4.34000000E+02  3.37000000E+02  3.20000000E+02
%FLAG BOND_EQUIL_VALUE                                                          
%FORMAT(5E16.8)                                                                 
  1.22900000E+00  1.33500000E+00  1.09000000E+00  1.52200000E+00  1.08000000E+00
  1.40000000E+00  9.60000000E-01  1.36400000E+00  1.40900000E+00  1.51000000E+00
  1.09000000E+00  1.52600000E+00  1.01000000E+00  1.44900000E+00  1.41000000E+00
%FLAG ANGLE_FORCE_CONSTANT                                                      
%FORMAT(5E16.8)                                                                 
  8.00000000E+01  5.00000000E+01  5.00000000E+01  5.00000000E+01  3.50000000E+01
  8.00000000E+01  7.00000000E+01  5.00000000E+01  7.00000000E+01  5.00000000E+01
  5.00000000E+01  6.30000000E+01  6.30000000E+01  6.30000000E+01  5.00000000E+01
  6.30000000E+01  7.00000000E+01  5.00000000E+01  5.00000000E+01  5.00000000E+01
  6.30000000E+01  5.00000000E+01  5.00000000E+01  8.00000000E+01  6.30000000E+01
  5.00000000E+01  3.50000000E+01  5.50000000E+01  5.00000000E+01  4.00000000E+01
  5.00000000E+01  3.50000000E+01
%FLAG ANGLE_EQUIL_VALUE                                                         
%FORMAT(5E16.8)                                                                 
  2.14501057E+00  2.09439600E+00  2.12755727E+00  1.91113635E+00  1.91113635E+00
  2.10137732E+00  2.03505478E+00  2.09439600E+00  2.09439600E+00  1.97222290E+00
  2.09439600E+00  2.09439600E+00  2.09439600E+00  2.09439600E+00  1.91113635E+00
  1.93906163E+00  2.09439600E+00  1.91113635E+00  1.91113635E+00  1.91113635E+00
  1.98967620E+00  2.06018753E+00  1.91113635E+00  1.91462701E+00  1.92160833E+00
  1.91113635E+00  1.91113635E+00  1.89368305E+00  1.91113635E+00  1.91113635E+00
  2.05948940E+00  2.09439600E+00
%FLAG DIHEDRAL_FORCE_CONSTANT                                                   
%FORMAT(5E16.8)                                                                 
  1.00000000E+00  2.90000000E+00  1.87500000E+00  0.00000000E+00  2.00000000E+00
  2.00000000E+00  4.00000000E-01  0.00000000E+00  0.00000000E+00  2.70000000E-01
  4.20000000E-01  8.00000000E-01  8.00000000E-02  3.62500000E+00  2.30000000E+00
  1.55555556E-01  2.00000000E-01  2.00000000E-01  4.50000000E-01  1.58000000E+00
  5.50000000E-01  1.66666667E-01  2.50000000E-01  0.00000000E+00  1.60000000E-01
  1.50000000E-01  2.00000000E-01  2.50000000E-01  1.80000000E-01  1.05000000E+01
  1.10000000E+00  1.00000000E+00
%FLAG DIHEDRAL_PERIODICITY                                                      
%FORMAT(5E16.8)                                                                 
  1.00000000E+00  2.00000000E+00  2.00000000E+00  2.00000000E+00  1.00000000E+00
  2.00000000E+00  3.00000000E+00  4.00000000E+00  1.00000000E+00  2.00000000E+00
  3.00000000E+00  1.00000000E+00  3.00000000E+00  2.00000000E+00  2.00000000E+00
  3.00000000E+00  1.00000000E+00  2.00000000E+00  1.00000000E+00  2.00000000E+00
  3.00000000E+00  3.00000000E+00  1.00000000E+00  3.00000000E+00  3.00000000E+00
  3.00000000E+00  1.00000000E+00  2.00000000E+00  3.00000000E+00  2.00000000E+00
  2.00000000E+00  2.00000000E+00
%FLAG DIHEDRAL_PHASE                                                            
%FORMAT(5E16.8)                                                                 
  0.00000000E+00  3.14159400E+00  3.14159400E+00  0.00000000E+00  0.00000000E+00
  0.00000000E+00  0.00000000E+00  0.00000000E+00  0.00000000E+00  0.00000000E+00
  0.00000000E+00  0.00000000E+00  3.14159400E+00  3.14159400E+00  3.14159400E+00
  0.00000000E+00  0.00000000E+00  0.00000000E+00  3.14159400E+00  3.14159400E+00
  3.14159400E+00  0.00000000E+00  0.00000000E+00  0.00000000E+00  0.00000000E+00
  0.00000000E+00  3.14159400E+00  3.14159400E+00  0.00000000E+00  3.14159400E+00
  3.14159400E+00  3.14159400E+00
%FLAG SCEE_SCALE_FACTOR                                                         
%FORMAT(5E16.8)                                                                 
  1.20000000E+00  1.20000000E+00  1.20000000E+00  1.20000000E+00  1.20000000E+00
  1.20000000E+00  1.20000000E+00  1.20000000E+00  1.20000000E+00  1.20000000E+00
  1.20000000E+00  1.20000000E+00  1.20000000E+00  1.20000000E+00  1.20000000E+00
  1.20000000E+00  1.20000000E+00  1.20000000E+00  1.20000000E+00  1.20000000E+00
  1.20000000E+00  1.20000000E+00  1.20000000E+00  1.20000000E+00  1.20000000E+00
  1.20000000E+00  1.20000000E+00  1.20000000E+00  1.20000000E+00  0.00000000E+00
  0.00000000E+00  0.00000000E+00
%FLAG SCNB_SCALE_FACTOR                                                         
%FORMAT(5E16.8)                                                                 
  2.00000000E+00  2.00000000E+00  2.00000000E+00  2.00000000E+00  2.00000000E+00
  2.00000000E+00  2.00000000E+00  2.00000000E+00  2.00000000E+00  2.00000000E+00
  2.00000000E+00  2.00000000E+00  2.00000000E+00  2.00000000E+00  2.00000000E+00
  2.00000000E+00  2.00000000E+00  2.00000000E+00  2.00000000E+00  2.00000000E+00
  2.00000000E+00  2.00000000E+00  2.00000000E+00  2.00000000E+00  2.00000000E+00
  2.00000000E+00  2.00000000E+00  2.00000000E+00  2.00000000E+00  0.00000000E+00
  0.00000000E+00  0.00000000E+00
%FLAG SOLTY                                                                     
%FORMAT(5E16.8)                                                                 
  0.00000000E+00  0.00000000E+00  0.00000000E+00  0.00000000E+00  0.00000000E+00
  0.00000000E+00  0.00000000E+00  0.00000000E+00  0.00000000E+00  0.00000000E+00
  0.00000000E+00
%FLAG LENNARD_JONES_ACOEF                                                       
%FORMAT(5E16.8)                                                                 
  7.51607703E+03  9.71708117E+04  1.04308023E+06  8.61541883E+04  9.24822270E+05
  8.19971662E+05  5.44261042E+04  6.47841731E+05  5.74393458E+05  3.79876399E+05
  8.96776989E+04  9.95480466E+05  8.82619071E+05  6.06829342E+05  9.44293233E+05
  1.07193646E+02  2.56678134E+03  2.27577561E+03  1.02595236E+03  2.12601181E+03
  1.39982777E-01  4.98586848E+03  6.78771368E+04  6.01816484E+04  3.69471530E+04
  6.20665997E+04  5.94667300E+01  3.25969625E+03  6.55825601E+03  8.59947003E+04
  7.62451550E+04  4.77908183E+04  7.91627154E+04  8.90987508E+01  4.33325458E+03
  5.71629601E+03  6.82786631E+04  7.91544157E+05  7.01803794E+05  4.71003287E+05
  7.44975864E+05  1.40467023E+03  4.66922514E+04  6.00750218E+04  5.81803229E+05
  0.00000000E+00  0.00000000E+00  0.00000000E+00  0.00000000E+00  0.00000000E+00
  0.00000000E+00  0.00000000E+00  0.00000000E+00  0.00000000E+00  0.00000000E+00
%FLAG LENNARD_JONES_BCOEF                                                       
%FORMAT(5E16.8)                                                                 
  2.17257828E+01  1.26919150E+02  6.75612247E+02  1.12529845E+02  5.99015525E+02
  5.31102864E+02  1.11805549E+02  6.26720080E+02  5.55666448E+02  5.64885984E+02
  1.36131731E+02  7.36907417E+02  6.53361429E+02  6.77220874E+02  8.01323529E+02
  2.59456373E+00  2.06278363E+01  1.82891803E+01  1.53505284E+01  2.09604198E+01
  9.37598976E-02  1.76949863E+01  1.06076943E+02  9.40505980E+01  9.21192136E+01
  1.13252061E+02  1.93248820E+00  1.43076527E+01  2.00642027E+01  1.18043746E+02
  1.04660679E+02  1.03580945E+02  1.26451907E+02  2.33864085E+00  1.63092814E+01
  1.85196588E+01  1.25287818E+02  6.93079947E+02  6.14502845E+02  6.29300710E+02
  7.50714425E+02  1.79702257E+01  1.03606917E+02  1.16187983E+02  6.99746810E+02
  0.00000000E+00  0.00000000E+00  0.00000000E+00  0.00000000E+00  0.00000000E+00
  0.00000000E+00  0.00000000E+00  0.00000000E+00  0.00000000E+00  0.00000000E+00
%FLAG BONDS_INC_HYDROGEN                                                        
%FORMAT(10I8)                                                                   
       3       6       3       3       9       3       0       3       3      69
      72       5      63      66       5      57      60       7      48      51
       5      42      45       5      30      33       3      30      36       3
      24      27      11      18      21      13     102     105       7      93
      96      11      93      99      11      87      90      11      81      84
      13     144     147      11     135     138       3     135     141       3
     126     129       3     126     132       3     117     120      11     117
     123      11     186     189       7     174     177       3     174     180
       3     174     183       3     168     171      11     162     165      11
     156     159      13     219     222       7     210     213      11     210
     216      11     204     207      11     198     201      13     261     264
      11     252     255       3     252     258       3     243     246       3
     243     249       3     234     237      11     234     240      11     294
     297       7     285     288      11     285     291      11     279     282
      11     273     276      13     357     360       5     351     354       5
     345     348       7     336     339       5     330     333       5     318
     321       3     318     324       3     312     315      11     306     309
      13     390     393       7     381     384      11     381     387      11
     375     378      11     369     372      13     432     435      11     423
     426       3     423     429       3     414     417       3     414     420
       3     405     408      11     405     411      11     474     477       7
     462     465       3     462     468       3     462     471       3     456
     459      11     450     453      11     444     447      13     507     510
       7     498     501      11     498     504      11     492     495      11
     486     489      13     549     552      11     540     543       3     540
     546       3     531     534       3     531     537       3     522     525
      11     522     528      11     582     585       7     573     576      11
     573     579      11     567     570      11     561     564      13     645
     648       5     639     642       5     633     636       7     624     627
       5     618     621       5     606     609       3     606     612       3
     600     603      11     594     597      13     678     681       7     669
     672      11     669     675      11     663     666      11     657     660
      13     720     723      11     711     714       3     711     717       3
     702     705       3     702     708       3     693     696      11     693
     699      11     762     765       7     750     753       3     750     756
       3     750     759       3     744     747      11     738     741      11
     732     735      13     795     798       7     786     789      11     786
     792      11     780     783      11     774     777      13     837     840
      11     828     831       3     828     834       3     819     822       3
     819     825       3     810     813      11     810     816      11     870
     873       7     861     864      11     861     867      11     855     858
      11     849     852      13     882     885      13     882     888      13
%FLAG BONDS_WITHOUT_HYDROGEN                                                    
%FORMAT(10I8)                                                                   
      12      15       1      12      18       2       3      12       4      75
      78       1      75      81       2      63      69       6      54      57
       8      54      63       9      48      54       9      42      48       6
      39      42       6      39      69       6      30      39      10      24
      30      12      24      75       4      18      24      14     108     111
       1     108     114       2      93     102      15      87      93      12
      87     108       4      81      87      14     150     153       1     150
     156       2     144     150       4     135     144      12     126     135
      12     117     126      12     114     117      14     114     144      14
     192     195       1     192     198       2     168     174      12     168
     186      15     162     168      12     162     192       4     156     162
      14     225     228       1     225     231       2     210     219      15
     204     210      12     204     225       4     198     204      14     267
     270       1     267     273       2     261     267       4     252     261
      12     243     252      12     234     243      12     231     234      14
     231     261      14     300     303       1     300     306       2     285
     294      15     279     285      12     279     300       4     273     279
      14     363     366       1     363     369       2     351     357       6
     342     345       8     342     351       9     336     342       9     330
     336       6     327     330       6     327     357       6     318     327
      10     312     318      12     312     363       4     306     312      14
     396     399       1     396     402       2     381     390      15     375
     381      12     375     396       4     369     375      14     438     441
       1     438     444       2     432     438       4     423     432      12
     414     423      12     405     414      12     402     405      14     402
     432      14     480     483       1     480     486       2     456     462
      12     456     474      15     450     456      12     450     480       4
     444     450      14     513     516       1     513     519       2     498
     507      15     492     498      12     492     513       4     486     492
      14     555     558       1     555     561       2     549     555       4
     540     549      12     531     540      12     522     531      12     519
     522      14     519     549      14     588     591       1     588     594
       2     573     582      15     567     573      12     567     588       4
     561     567      14     651     654       1     651     657       2     639
     645       6     630     633       8     630     639       9     624     630
       9     618     624       6     615     618       6     615     645       6
     606     615      10     600     606      12     600     651       4     594
     600      14     684     687       1     684     690       2     669     678
      15     663     669      12     663     684       4     657     663      14
     726     729       1     726     732       2     720     726       4     711
     720      12     702     711      12     693     702      12     690     693
      14     690     720      14     768     771       1     768     774       2
     744     750      12     744     762      15     738     744      12     738
     768       4     732     738      14     801     804       1     801     807
       2     786     795      15     780     786      12     780     801       4
     774     780      14     843     846       1     843     849       2     837
     843       4     828     837      12     819     828      12     810     819
      12     807     810      14     807     837      14     876     879       1
     876     882       2     861     870      15     855     861      12     855
     876       4     849     855      14
%FLAG ANGLES_INC_HYDROGEN                                                       
%FORMAT(10I8)                                                                   
      12      18      21       2       9       3      12       4       6       3
       9       5       6       3      12       4       0       3       6       5
       0       3       9       5       0       3      12       4      75      81
      84       2      66      63      69       8      63      69      72       8
      54      57      60      10      54      63      66      11      51      48
      54      11      45      42      48       8      42      48      51       8
      39      42      45       8      39      69      72       8      36      30
      39      15      33      30      36       5      33      30      39      15
      27      24      30      18      27      24      75      19      24      30
      33      20      24      30      36      20      21      18      24      22
      18      24      27      23      99      93     102      26      96      93
      99      27      96      93     102      26      93     102     105      28
      90      87      93      18      90      87     108      19      87      93
      96      18      87      93      99      18      84      81      87      22
      81      87      90      23     150     156     159       2     147     144
     150      19     141     135     144      20     138     135     141       5
     138     135     144      20     135     144     147      18     132     126
     135      20     129     126     132       5     129     126     135      20
     126     135     138      20     126     135     141      20     123     117
     126      18     120     117     123      27     120     117     126      18
     117     126     129      20     117     126     132      20     114     117
     120      23     114     117     123      23     114     144     147      23
     192     198     201       2     180     174     183       5     177     174
     180       5     177     174     183       5     171     168     174      18
     171     168     186      26     168     174     177      20     168     174
     180      20     168     174     183      20     168     186     189      28
     165     162     168      18     165     162     192      19     162     168
     171      18     159     156     162      22     156     162     165      23
     216     210     219      26     213     210     216      27     213     210
     219      26     210     219     222      28     207     204     210      18
     207     204     225      19     204     210     213      18     204     210
     216      18     201     198     204      22     198     204     207      23
     267     273     276       2     264     261     267      19     258     252
     261      20     255     252     258       5     255     252     261      20
     252     261     264      18     249     243     252      20     246     243
     249       5     246     243     252      20     243     252     255      20
     243     252     258      20     240     234     243      18     237     234
     240      27     237     234     243      18     234     243     246      20
     234     243     249      20     231     234     237      23     231     234
     240      23     231     261     264      23     300     306     309       2
     291     285     294      26     288     285     291      27     288     285
     294      26     285     294     297      28     282     279     285      18
     282     279     300      19     279     285     288      18     279     285
     291      18     276     273     279      22     273     279     282      23
     363     369     372       2     354     351     357       8     351     357
     360       8     342     345     348      10     342     351     354      11
     339     336     342      11     333     330     336       8     330     336
     339       8     327     330     333       8     327     357     360       8
     324     318     327      15     321     318     324       5     321     318
     327      15     315     312     318      18     315     312     363      19
     312     318     321      20     312     318     324      20     309     306
     312      22     306     312     315      23     387     381     390      26
     384     381     387      27     384     381     390      26     381     390
     393      28     378     375     381      18     378     375     396      19
     375     381     384      18     375     381     387      18     372     369
     375      22     369     375     378      23     438     444     447       2
     435     432     438      19     429     423     432      20     426     423
     429       5     426     423     432      20     423     432     435      18
     420     414     423      20     417     414     420       5     417     414
     423      20     414     423     426      20     414     423     429      20
     411     405     414      18     408     405     411      27     408     405
     414      18     405     414     417      20     405     414     420      20
     402     405     408      23     402     405     411      23     402     432
     435      23     480     486     489       2     468     462     471       5
     465     462     468       5     465     462     471       5     459     456
     462      18     459     456     474      26     456     462     465      20
     456     462     468      20     456     462     471      20     456     474
     477      28     453     450     456      18     453     450     480      19
     450     456     459      18     447     444     450      22     444     450
     453      23     504     498     507      26     501     498     504      27
     501     498     507      26     498     507     510      28     495     492
     498      18     495     492     513      19     492     498     501      18
     492     498     504      18     489     486     492      22     486     492
     495      23     555     561     564       2     552     549     555      19
     546     540     549      20     543     540     546       5     543     540
     549      20     540     549     552      18     537     531     540      20
     534     531     537       5     534     531     540      20     531     540
     543      20     531     540     546      20     528     522     531      18
     525     522     528      27     525     522     531      18     522     531
     534      20     522     531     537      20     519     522     525      23
     519     522     528      23     519     549     552      23     588     594
     597       2     579     573     582      26     576     573     579      27
     576     573     582      26     573     582     585      28     570     567
     573      18     570     567     588      19     567     573     576      18
     567     573     579      18     564     561     567      22     561     567
     570      23     651     657     660       2     642     639     645       8
     639     645     648       8     630     633     636      10     630     639
     642      11     627     624     630      11     621     618     624       8
     618     624     627       8     615     618     621       8     615     645
     648       8     612     606     615      15     609     606     612       5
     609     606     615      15     603     600     606      18     603     600
     651      19     600     606     609      20     600     606     612      20
     597     594     600      22     594     600     603      23     675     669
     678      26     672     669     675      27     672     669     678      26
     669     678     681      28     666     663     669      18     666     663
     684      19     663     669     672      18     663     669     675      18
     660     657     663      22     657     663     666      23     726     732
     735       2     723     720     726      19     717     711     720      20
     714     711     717       5     714     711     720      20     711     720
     723      18     708     702     711      20     705     702     708       5
     705     702     711      20     702     711     714      20     702     711
     717      20     699     693     702      18     696     693     699      27
     696     693     702      18     693     702     705      20     693     702
     708      20     690     693     696      23     690     693     699      23
     690     720     723      23     768     774     777       2     756     750
     759       5     753     750     756       5     753     750     759       5
     747     744     750      18     747     744     762      26     744     750
     753      20     744     750     756      20     744     750     759      20
     744     762     765      28     741     738     744      18     741     738
     768      19     738     744     747      18     735     732     738      22
     732     738     741      23     792     786     795      26     789     786
     792      27     789     786     795      26     786     795     798      28
     783     780     786      18     783     780     801      19     780     786
     789      18     780     786     792      18     777     774     780      22
     774     780     783      23     843     849     852       2     840     837
     843      19     834     828     837      20     831     828     834       5
     831     828     837      20     828     837     840      18     825     819
     828      20     822     819     825       5     822     819     828      20
     819     828     831      20     819     828     834      20     816     810
     819      18     813     810     816      27     813     810     819      18
     810     819     822      20     810     819     825      20     807     810
     813      23     807     810     816      23     807     837     840      23
     876     882     885       2     876     882     888       2     867     861
     870      26     864     861     867      27     864     861     870      26
     861     870     873      28     858     855     861      18     858     855
     876      19     855     861     864      18     855     861     867      18
     852     849     855      22     849     855     858      23     885     882
     888      32
%FLAG ANGLES_WITHOUT_HYDROGEN                                                   
%FORMAT(10I8)                                                                   
      15      12      18       1      12      18      24       3       3      12
      15       6       3      12      18       7      78      75      81       1
      75      81      87       3      57      54      63       9      54      63
      69      12      48      54      57       9      48      54      63      13
      42      39      69      14      42      48      54      12      39      42
      48      14      39      69      63      14      30      24      75      16
      30      39      42      17      30      39      69      17      24      30
      39      21      24      75      78       6      24      75      81       7
      18      24      30      24      18      24      75      25     111     108
     114       1     108     114     117       3     108     114     144       3
      93      87     108      16      87      93     102      29      87     108
     111       6      87     108     114       7      81      87      93      24
      81      87     108      25     153     150     156       1     150     156
     162       3     144     150     153       6     144     150     156       7
     135     144     150      16     126     135     144      30     117     114
     144      31     117     126     135      30     114     117     126      24
     114     144     135      24     114     144     150      25     195     192
     198       1     192     198     204       3     174     168     186      29
     168     162     192      16     162     168     174      30     162     168
     186      29     162     192     195       6     162     192     198       7
     156     162     168      24     156     162     192      25     228     225
     231       1     225     231     234       3     225     231     261       3
     210     204     225      16     204     210     219      29     204     225
     228       6     204     225     231       7     198     204     210      24
     198     204     225      25     270     267     273       1     267     273
     279       3     261     267     270       6     261     267     273       7
     252     261     267      16     243     252     261      30     234     231
     261      31     234     243     252      30     231     234     243      24
     231     261     252      24     231     261     267      25     303     300
     306       1     300     306     312       3     285     279     300      16
     279     285     294      29     279     300     303       6     279     300
     306       7     273     279     285      24     273     279     300      25
     366     363     369       1     363     369     375       3     345     342
     351       9     342     351     357      12     336     342     345       9
     336     342     351      13     330     327     357      14     330     336
     342      12     327     330     336      14     327     357     351      14
     318     312     363      16     318     327     330      17     318     327
     357      17     312     318     327      21     312     363     366       6
     312     363     369       7     306     312     318      24     306     312
     363      25     399     396     402       1     396     402     405       3
     396     402     432       3     381     375     396      16     375     381
     390      29     375     396     399       6     375     396     402       7
     369     375     381      24     369     375     396      25     441     438
     444       1     438     444     450       3     432     438     441       6
     432     438     444       7     423     432     438      16     414     423
     432      30     405     402     432      31     405     414     423      30
     402     405     414      24     402     432     423      24     402     432
     438      25     483     480     486       1     480     486     492       3
     462     456     474      29     456     450     480      16     450     456
     462      30     450     456     474      29     450     480     483       6
     450     480     486       7     444     450     456      24     444     450
     480      25     516     513     519       1     513     519     522       3
     513     519     549       3     498     492     513      16     492     498
     507      29     492     513     516       6     492     513     519       7
     486     492     498      24     486     492     513      25     558     555
     561       1     555     561     567       3     549     555     558       6
     549     555     561       7     540     549     555      16     531     540
     549      30     522     519     549      31     522     531     540      30
     519     522     531      24     519     549     540      24     519     549
     555      25     591     588     594       1     588     594     600       3
     573     567     588      16     567     573     582      29     567     588
     591       6     567     588     594       7     561     567     573      24
     561     567     588      25     654     651     657       1     651     657
     663       3     633     630     639       9     630     639     645      12
     624     630     633       9     624     630     639      13     618     615
     645      14     618     624     630      12     615     618     624      14
     615     645     639      14     606     600     651      16     606     615
     618      17     606     615     645      17     600     606     615      21
     600     651     654       6     600     651     657       7     594     600
     606      24     594     600     651      25     687     684     690       1
     684     690     693       3     684     690     720       3     669     663
     684      16     663     669     678      29     663     684     687       6
     663     684     690       7     657     663     669      24     657     663
     684      25     729     726     732       1     726     732     738       3
     720     726     729       6     720     726     732       7     711     720
     726      16     702     711     720      30     693     690     720      31
     693     702     711      30     690     693     702      24     690     720
     711      24     690     720     726      25     771     768     774       1
     768     774     780       3     750     744     762      29     744     738
     768      16     738     744     750      30     738     744     762      29
     738     768     771       6     738     768     774       7     732     738
     744      24     732     738     768      25     804     801     807       1
     801     807     810       3     801     807     837       3     786     780
     801      16     780     786     795      29     780     801     804       6
     780     801     807       7     774     780     786      24     774     780
     801      25     846     843     849       1     843     849     855       3
     837     843     846       6     837     843     849       7     828     837
     843      16     819     828     837      30     810     807     837      31
     810     819     828      30     807     810     819      24     807     837
     828      24     807     837     843      25     879     876     882       1
     861     855     876      16     855     861     870      29     855     876
     879       6     855     876     882       7     849     855     861      24
     849     855     876      25
%FLAG DIHEDRALS_INC_HYDROGEN                                                    
%FORMAT(10I8)                                                                   
      15      12      18      21       1      15      12     -18      21       2
      12      18      24      27       4       9       3      12      15      12
       9       3     -12      15       4       9       3     -12      15      13
       9       3      12      18       4       6       3      12      15      12
       6       3     -12      15       4       6       3     -12      15      13
       6       3      12      18       4       3      12      18      21       3
       0       3      12      15      12       0       3     -12      15       4
       0       3     -12      15      13       0       3      12      18       4
      78      75      81      84       1      78      75     -81      84       2
      75      81      87      90       4      66      63      69      72      14
      60      57      54      63      15      57      54      63      66      14
      54      63      69      72      14      51      48      54      57      14
      51      48      54      63      14      48      54      57      60      15
      48      54      63      66      14      45      42      39      69      14
      45      42      48      51      14      45      42      48      54      14
      42      39      69      72      14      39      42      48      51      14
      39      69      63      66      14      36      30      24      75      16
      36      30      39      42       4      36      30      39      69       4
      33      30      24      75      16      33      30      39      42       4
      33      30      39      69       4      30      39      42      45      14
      30      39      69      72      14      27      24      30      33      16
      27      24      30      36      16      27      24      30      39      16
      27      24      75      78      12      27      24     -75      78       4
      27      24     -75      78      13      27      24      75      81       4
      24      75      81      84       3      21      18      24      27       4
      21      18      24      30       4      21      18      24      75       4
      18      24      30      33      16      18      24      30      36      16
     108     114     117     120       4     108     114     117     123       4
     108     114     144     147       4      99      93      87     108      16
      99      93     102     105      22      96      93      87     108      16
      96      93     102     105      22      90      87      93      96      16
      90      87      93      99      16      90      87      93     102      23
      90      87     -93     102      24      90      87     108     111      12
      90      87    -108     111       4      90      87    -108     111      13
      90      87     108     114       4      87      93     102     105      23
      87      93    -102     105      25      84      81      87      90       4
      84      81      87      93       4      84      81      87     108       4
      81      87      93      96      16      81      87      93      99      16
     153     150     156     159       1     153     150    -156     159       2
     150     156     162     165       4     147     144     150     153      12
     147     144    -150     153       4     147     144    -150     153      13
     147     144     150     156       4     144     150     156     159       3
     141     135     144     147      16     141     135     144     150      16
     138     135     144     147      16     138     135     144     150      16
     132     126     135     138      26     132     126     135     141      26
     132     126     135     144      25     129     126     135     138      26
     129     126     135     141      26     129     126     135     144      25
     126     135     144     147      16     123     117     114     144       4
     123     117     126     129      16     123     117     126     132      16
     123     117     126     135      16     120     117     114     144       4
     120     117     126     129      16     120     117     126     132      16
     120     117     126     135      16     117     114     144     147       4
     117     126     135     138      25     117     126     135     141      25
     114     117     126     129      16     114     117     126     132      16
     114     144     135     138      16     114     144     135     141      16
     195     192     198     201       1     195     192    -198     201       2
     192     198     204     207       4     183     174     168     186      23
     183     174    -168     186      24     180     174     168     186      23
     180     174    -168     186      24     177     174     168     186      23
     177     174    -168     186      24     174     168     186     189      23
     174     168    -186     189      25     171     168     162     192      16
     171     168     174     177      16     171     168     174     180      16
     171     168     174     183      16     171     168     186     189      22
     165     162     168     171      16     165     162     168     174      16
     165     162     168     186      23     165     162    -168     186      24
     165     162     192     195      12     165     162    -192     195       4
     165     162    -192     195      13     165     162     192     198       4
     162     168     174     177      25     162     168     174     180      25
     162     168     174     183      25     162     168     186     189      23
     162     168    -186     189      25     162     192     198     201       3
     159     156     162     165       4     159     156     162     168       4
     159     156     162     192       4     156     162     168     171      16
     225     231     234     237       4     225     231     234     240       4
     225     231     261     264       4     216     210     204     225      16
     216     210     219     222      22     213     210     204     225      16
     213     210     219     222      22     207     204     210     213      16
     207     204     210     216      16     207     204     210     219      23
     207     204    -210     219      24     207     204     225     228      12
     207     204    -225     228       4     207     204    -225     228      13
     207     204     225     231       4     204     210     219     222      23
     204     210    -219     222      25     201     198     204     207       4
     201     198     204     210       4     201     198     204     225       4
     198     204     210     213      16     198     204     210     216      16
     270     267     273     276       1     270     267    -273     276       2
     267     273     279     282       4     264     261     267     270      12
     264     261    -267     270       4     264     261    -267     270      13
     264     261     267     273       4     261     267     273     276       3
     258     252     261     264      16     258     252     261     267      16
     255     252     261     264      16     255     252     261     267      16
     249     243     252     255      26     249     243     252     258      26
     249     243     252     261      25     246     243     252     255      26
     246     243     252     258      26     246     243     252     261      25
     243     252     261     264      16     240     234     231     261       4
     240     234     243     246      16     240     234     243     249      16
     240     234     243     252      16     237     234     231     261       4
     237     234     243     246      16     237     234     243     249      16
     237     234     243     252      16     234     231     261     264       4
     234     243     252     255      25     234     243     252     258      25
     231     234     243     246      16     231     234     243     249      16
     231     261     252     255      16     231     261     252     258      16
     303     300     306     309       1     303     300    -306     309       2
     300     306     312     315       4     291     285     279     300      16
     291     285     294     297      22     288     285     279     300      16
     288     285     294     297      22     282     279     285     288      16
     282     279     285     291      16     282     279     285     294      23
     282     279    -285     294      24     282     279     300     303      12
     282     279    -300     303       4     282     279    -300     303      13
     282     279     300     306       4     279     285     294     297      23
     279     285    -294     297      25     279     300     306     309       3
     276     273     279     282       4     276     273     279     285       4
     276     273     279     300       4     273     279     285     288      16
     273     279     285     291      16     366     363     369     372       1
     366     363    -369     372       2     363     369     375     378       4
     354     351     357     360      14     348     345     342     351      15
     345     342     351     354      14     342     351     357     360      14
     339     336     342     345      14     339     336     342     351      14
     336     342     345     348      15     336     342     351     354      14
     333     330     327     357      14     333     330     336     339      14
     333     330     336     342      14     330     327     357     360      14
     327     330     336     339      14     327     357     351     354      14
     324     318     312     363      16     324     318     327     330       4
     324     318     327     357       4     321     318     312     363      16
     321     318     327     330       4     321     318     327     357       4
     318     327     330     333      14     318     327     357     360      14
     315     312     318     321      16     315     312     318     324      16
     315     312     318     327      16     315     312     363     366      12
     315     312    -363     366       4     315     312    -363     366      13
     315     312     363     369       4     312     363     369     372       3
     309     306     312     315       4     309     306     312     318       4
     309     306     312     363       4     306     312     318     321      16
     306     312     318     324      16     396     402     405     408       4
     396     402     405     411       4     396     402     432     435       4
     387     381     375     396      16     387     381     390     393      22
     384     381     375     396      16     384     381     390     393      22
     378     375     381     384      16     378     375     381     387      16
     378     375     381     390      23     378     375    -381     390      24
     378     375     396     399      12     378     375    -396     399       4
     378     375    -396     399      13     378     375     396     402       4
     375     381     390     393      23     375     381    -390     393      25
     372     369     375     378       4     372     369     375     381       4
     372     369     375     396       4     369     375     381     384      16
     369     375     381     387      16     441     438     444     447       1
     441     438    -444     447       2     438     444     450     453       4
     435     432     438     441      12     435     432    -438     441       4
     435     432    -438     441      13     435     432     438     444       4
     432     438     444     447       3     429     423     432     435      16
     429     423     432     438      16     426     423     432     435      16
     426     423     432     438      16     420     414     423     426      26
     420     414     423     429      26     420     414     423     432      25
     417     414     423     426      26     417     414     423     429      26
     417     414     423     432      25     414     423     432     435      16
     411     405     402     432       4     411     405     414     417      16
     411     405     414     420      16     411     405     414     423      16
     408     405     402     432       4     408     405     414     417      16
     408     405     414     420      16     408     405     414     423      16
     405     402     432     435       4     405     414     423     426      25
     405     414     423     429      25     402     405     414     417      16
     402     405     414     420      16     402     432     423     426      16
     402     432     423     429      16     483     480     486     489       1
     483     480    -486     489       2     480     486     492     495       4
     471     462     456     474      23     471     462    -456     474      24
     468     462     456     474      23     468     462    -456     474      24
     465     462     456     474      23     465     462    -456     474      24
     462     456     474     477      23     462     456    -474     477      25
     459     456     450     480      16     459     456     462     465      16
     459     456     462     468      16     459     456     462     471      16
     459     456     474     477      22     453     450     456     459      16
     453     450     456     462      16     453     450     456     474      23
     453     450    -456     474      24     453     450     480     483      12
     453     450    -480     483       4     453     450    -480     483      13
     453     450     480     486       4     450     456     462     465      25
     450     456     462     468      25     450     456     462     471      25
     450     456     474     477      23     450     456    -474     477      25
     450     480     486     489       3     447     444     450     453       4
     447     444     450     456       4     447     444     450     480       4
     444     450     456     459      16     513     519     522     525       4
     513     519     522     528       4     513     519     549     552       4
     504     498     492     513      16     504     498     507     510      22
     501     498     492     513      16     501     498     507     510      22
     495     492     498     501      16     495     492     498     504      16
     495     492     498     507      23     495     492    -498     507      24
     495     492     513     516      12     495     492    -513     516       4
     495     492    -513     516      13     495     492     513     519       4
     492     498     507     510      23     492     498    -507     510      25
     489     486     492     495       4     489     486     492     498       4
     489     486     492     513       4     486     492     498     501      16
     486     492     498     504      16     558     555     561     564       1
     558     555    -561     564       2     555     561     567     570       4
     552     549     555     558      12     552     549    -555     558       4
     552     549    -555     558      13     552     549     555     561       4
     549     555     561     564       3     546     540     549     552      16
     546     540     549     555      16     543     540     549     552      16
     543     540     549     555      16     537     531     540     543      26
     537     531     540     546      26     537     531     540     549      25
     534     531     540     543      26     534     531     540     546      26
     534     531     540     549      25     531     540     549     552      16
     528     522     519     549       4     528     522     531     534      16
     528     522     531     537      16     528     522     531     540      16
     525     522     519     549       4     525     522     531     534      16
     525     522     531     537      16     525     522     531     540      16
     522     519     549     552       4     522     531     540     543      25
     522     531     540     546      25     519     522     531     534      16
     519     522     531     537      16     519     549     540     543      16
     519     549     540     546      16     591     588     594     597       1
     591     588    -594     597       2     588     594     600     603       4
     579     573     567     588      16     579     573     582     585      22
     576     573     567     588      16     576     573     582     585      22
     570     567     573     576      16     570     567     573     579      16
     570     567     573     582      23     570     567    -573     582      24
     570     567     588     591      12     570     567    -588     591       4
     570     567    -588     591      13     570     567     588     594       4
     567     573     582     585      23     567     573    -582     585      25
     567     588     594     597       3     564     561     567     570       4
     564     561     567     573       4     564     561     567     588       4
     561     567     573     576      16     561     567     573     579      16
     654     651     657     660       1     654     651    -657     660       2
     651     657     663     666       4     642     639     645     648      14
     636     633     630     639      15     633     630     639     642      14
     630     639     645     648      14     627     624     630     633      14
     627     624     630     639      14     624     630     633     636      15
     624     630     639     642      14     621     618     615     645      14
     621     618     624     627      14     621     618     624     630      14
     618     615     645     648      14     615     618     624     627      14
     615     645     639     642      14     612     606     600     651      16
     612     606     615     618       4     612     606     615     645       4
     609     606     600     651      16     609     606     615     618       4
     609     606     615     645       4     606     615     618     621      14
     606     615     645     648      14     603     600     606     609      16
     603     600     606     612      16     603     600     606     615      16
     603     600     651     654      12     603     600    -651     654       4
     603     600    -651     654      13     603     600     651     657       4
     600     651     657     660       3     597     594     600     603       4
     597     594     600     606       4     597     594     600     651       4
     594     600     606     609      16     594     600     606     612      16
     684     690     693     696       4     684     690     693     699       4
     684     690     720     723       4     675     669     663     684      16
     675     669     678     681      22     672     669     663     684      16
     672     669     678     681      22     666     663     669     672      16
     666     663     669     675      16     666     663     669     678      23
     666     663    -669     678      24     666     663     684     687      12
     666     663    -684     687       4     666     663    -684     687      13
     666     663     684     690       4     663     669     678     681      23
     663     669    -678     681      25     660     657     663     666       4
     660     657     663     669       4     660     657     663     684       4
     657     663     669     672      16     657     663     669     675      16
     729     726     732     735       1     729     726    -732     735       2
     726     732     738     741       4     723     720     726     729      12
     723     720    -726     729       4     723     720    -726     729      13
     723     720     726     732       4     720     726     732     735       3
     717     711     720     723      16     717     711     720     726      16
     714     711     720     723      16     714     711     720     726      16
     708     702     711     714      26     708     702     711     717      26
     708     702     711     720      25     705     702     711     714      26
     705     702     711     717      26     705     702     711     720      25
     702     711     720     723      16     699     693     690     720       4
     699     693     702     705      16     699     693     702     708      16
     699     693     702     711      16     696     693     690     720       4
     696     693     702     705      16     696     693     702     708      16
     696     693     702     711      16     693     690     720     723       4
     693     702     711     714      25     693     702     711     717      25
     690     693     702     705      16     690     693     702     708      16
     690     720     711     714      16     690     720     711     717      16
     771     768     774     777       1     771     768    -774     777       2
     768     774     780     783       4     759     750     744     762      23
     759     750    -744     762      24     756     750     744     762      23
     756     750    -744     762      24     753     750     744     762      23
     753     750    -744     762      24     750     744     762     765      23
     750     744    -762     765      25     747     744     738     768      16
     747     744     750     753      16     747     744     750     756      16
     747     744     750     759      16     747     744     762     765      22
     741     738     744     747      16     741     738     744     750      16
     741     738     744     762      23     741     738    -744     762      24
     741     738     768     771      12     741     738    -768     771       4
     741     738    -768     771      13     741     738     768     774       4
     738     744     750     753      25     738     744     750     756      25
     738     744     750     759      25     738     744     762     765      23
     738     744    -762     765      25     738     768     774     777       3
     735     732     738     741       4     735     732     738     744       4
     735     732     738     768       4     732     738     744     747      16
     801     807     810     813       4     801     807     810     816       4
     801     807     837     840       4     792     786     780     801      16
     792     786     795     798      22     789     786     780     801      16
     789     786     795     798      22     783     780     786     789      16
     783     780     786     792      16     783     780     786     795      23
     783     780    -786     795      24     783     780     801     804      12
     783     780    -801     804       4     783     780    -801     804      13
     783     780     801     807       4     780     786     795     798      23
     780     786    -795     798      25     777     774     780     783       4
     777     774     780     786       4     777     774     780     801       4
     774     780     786     789      16     774     780     786     792      16
     846     843     849     852       1     846     843    -849     852       2
     843     849     855     858       4     840     837     843     846      12
     840     837    -843     846       4     840     837    -843     846      13
     840     837     843     849       4     837     843     849     852       3
     834     828     837     840      16     834     828     837     843      16
     831     828     837     840      16     831     828     837     843      16
     825     819     828     831      26     825     819     828     834      26
     825     819     828     837      25     822     819     828     831      26
     822     819     828     834      26     822     819     828     837      25
     819     828     837     840      16     816     810     807     837       4
     816     810     819     822      16     816     810     819     825      16
     816     810     819     828      16     813     810     807     837       4
     813     810     819     822      16     813     810     819     825      16
     813     810     819     828      16     810     807     837     840       4
     810     819     828     831      25     810     819     828     834      25
     807     810     819     822      16     807     810     819     825      16
     807     837     828     831      16     807     837     828     834      16
     879     876     882     885       1     879     876    -882     885       2
     879     876     882     888       1     879     876    -882     888       2
     867     861     855     876      16     867     861     870     873      22
     864     861     855     876      16     864     861     870     873      22
     858     855     861     864      16     858     855     861     867      16
     858     855     861     870      23     858     855    -861     870      24
     858     855     876     879      12     858     855    -876     879       4
     858     855    -876     879      13     858     855     876     882       4
     855     861     870     873      23     855     861    -870     873      25
     855     876     882     885       3     855     876     882     888       3
     852     849     855     858       4     852     849     855     861       4
     852     849     855     876       4     849     855     861     864      16
     849     855     861     867      16      39      63     -69     -72      31
      54      69     -63     -66      31      42      54     -48     -51      31
      39      48     -42     -45      31      12      24     -18     -21      31
      75      87     -81     -84      31     150     162    -156    -159      31
     192     204    -198    -201      31     267     279    -273    -276      31
     327     351    -357    -360      31     342     357    -351    -354      31
     330     342    -336    -339      31     327     336    -330    -333      31
     300     312    -306    -309      31     363     375    -369    -372      31
     438     450    -444    -447      31     480     492    -486    -489      31
     555     567    -561    -564      31     615     639    -645    -648      31
     630     645    -639    -642      31     618     630    -624    -627      31
     615     624    -618    -621      31     588     600    -594    -597      31
     651     663    -657    -660      31     726     738    -732    -735      31
     768     780    -774    -777      31     843     855    -849    -852      31
     876     885    -882    -888      32
%FLAG DIHEDRALS_WITHOUT_HYDROGEN                                                
%FORMAT(10I8)                                                                   
      15      12      18      24       3      12      18      24      30       5
      12      18     -24      30       6      12      18     -24      30       7
      12      18     -24      30       8      12      18      24      75       9
      12      18     -24      75      10      12      18     -24      75      11
      12      18     -24      75       8       3      12      18      24       3
      78      75      81      87       3      75      81      87      93       5
      75      81     -87      93       6      75      81     -87      93       7
      75      81     -87      93       8      75      81      87     108       9
      75      81     -87     108      10      75      81     -87     108      11
      75      81     -87     108       8      57      54      63      69      14
      48      42      39      69      14      48      54     -63      69      14
      42      39      69      63      14      42      48      54      57      14
      42      48     -54      63      14      39      30      24      75      16
      39      42      48      54      14      39      69     -63      54      14
      30      24      75      78       4      30      24      75      81      17
      30      24     -75      81      18      30      24     -75      81       7
      30      24     -75      81       8      30      39      42      48      14
      30      39      69      63      14      24      30      39      42       4
      24      30      39      69       4      24      75      81      87       3
      18      24      30      39      16      18      24      75      78       4
      18      24      75      81      19      18      24     -75      81      20
      18      24     -75      81      21      18      24     -75      81       8
     111     108     114     117       3     111     108     114     144       3
     108     114     117     126       5     108     114    -117     126       6
     108     114    -117     126       7     108     114    -117     126       8
     108     114     144     135       5     108     114    -144     135       6
     108     114    -144     135       7     108     114    -144     135       8
     108     114     144     150       9     108     114    -144     150      10
     108     114    -144     150      11     108     114    -144     150       8
     102      93      87     108      16      93      87     108     111       4
      93      87     108     114      17      93      87    -108     114      18
      93      87    -108     114       7      93      87    -108     114       8
      87     108     114     117       3      87     108     114     144       3
      81      87      93     102      16      81      87     108     111       4
      81      87     108     114      19      81      87    -108     114      20
      81      87    -108     114      21      81      87    -108     114       8
     153     150     156     162       3     150     156     162     168       5
     150     156    -162     168       6     150     156    -162     168       7
     150     156    -162     168       8     150     156     162     192       9
     150     156    -162     192      10     150     156    -162     192      11
     150     156    -162     192       8     144     150     156     162       3
     135     144     150     153       4     135     144     150     156      17
     135     144    -150     156      18     135     144    -150     156       7
     135     144    -150     156       8     126     117    -114     144       4
     126     135     144     150      16     117     114    -144     135       4
     117     114     144     150       4     117     126    -135     144      27
     117     126    -135     144      28     117     126    -135     144      29
     114     117    -126     135      16     114     144    -135     126      16
     114     144     150     153       4     114     144     150     156      19
     114     144    -150     156      20     114     144    -150     156      21
     114     144    -150     156       8     195     192     198     204       3
     192     198     204     210       5     192     198    -204     210       6
     192     198    -204     210       7     192     198    -204     210       8
     192     198     204     225       9     192     198    -204     225      10
     192     198    -204     225      11     192     198    -204     225       8
     186     168     162     192      16     174     168     162     192      16
     168     162     192     195       4     168     162     192     198      17
     168     162    -192     198      18     168     162    -192     198       7
     168     162    -192     198       8     162     192     198     204       3
     156     162     168     174      16     156     162     168     186      16
     156     162     192     195       4     156     162     192     198      19
     156     162    -192     198      20     156     162    -192     198      21
     156     162    -192     198       8     228     225     231     234       3
     228     225     231     261       3     225     231     234     243       5
     225     231    -234     243       6     225     231    -234     243       7
     225     231    -234     243       8     225     231     261     252       5
     225     231    -261     252       6     225     231    -261     252       7
     225     231    -261     252       8     225     231     261     267       9
     225     231    -261     267      10     225     231    -261     267      11
     225     231    -261     267       8     219     210     204     225      16
     210     204     225     228       4     210     204     225     231      17
     210     204    -225     231      18     210     204    -225     231       7
     210     204    -225     231       8     204     225     231     234       3
     204     225     231     261       3     198     204     210     219      16
     198     204     225     228       4     198     204     225     231      19
     198     204    -225     231      20     198     204    -225     231      21
     198     204    -225     231       8     270     267     273     279       3
     267     273     279     285       5     267     273    -279     285       6
     267     273    -279     285       7     267     273    -279     285       8
     267     273     279     300       9     267     273    -279     300      10
     267     273    -279     300      11     267     273    -279     300       8
     261     267     273     279       3     252     261     267     270       4
     252     261     267     273      17     252     261    -267     273      18
     252     261    -267     273       7     252     261    -267     273       8
     243     234    -231     261       4     243     252     261     267      16
     234     231    -261     252       4     234     231     261     267       4
     234     243    -252     261      27     234     243    -252     261      28
     234     243    -252     261      29     231     234    -243     252      16
     231     261    -252     243      16     231     261     267     270       4
     231     261     267     273      19     231     261    -267     273      20
     231     261    -267     273      21     231     261    -267     273       8
     303     300     306     312       3     300     306     312     318       5
     300     306    -312     318       6     300     306    -312     318       7
     300     306    -312     318       8     300     306     312     363       9
     300     306    -312     363      10     300     306    -312     363      11
     300     306    -312     363       8     294     285     279     300      16
     285     279     300     303       4     285     279     300     306      17
     285     279    -300     306      18     285     279    -300     306       7
     285     279    -300     306       8     279     300     306     312       3
     273     279     285     294      16     273     279     300     303       4
     273     279     300     306      19     273     279    -300     306      20
     273     279    -300     306      21     273     279    -300     306       8
     366     363     369     375       3     363     369     375     381       5
     363     369    -375     381       6     363     369    -375     381       7
     363     369    -375     381       8     363     369     375     396       9
     363     369    -375     396      10     363     369    -375     396      11
     363     369    -375     396       8     345     342     351     357      14
     336     330     327     357      14     336     342    -351     357      14
     330     327     357     351      14     330     336     342     345      14
     330     336    -342     351      14     327     318     312     363      16
     327     330     336     342      14     327     357    -351     342      14
     318     312     363     366       4     318     312     363     369      17
     318     312    -363     369      18     318     312    -363     369       7
     318     312    -363     369       8     318     327     330     336      14
     318     327     357     351      14     312     318     327     330       4
     312     318     327     357       4     312     363     369     375       3
     306     312     318     327      16     306     312     363     366       4
     306     312     363     369      19     306     312    -363     369      20
     306     312    -363     369      21     306     312    -363     369       8
     399     396     402     405       3     399     396     402     432       3
     396     402     405     414       5     396     402    -405     414       6
     396     402    -405     414       7     396     402    -405     414       8
     396     402     432     423       5     396     402    -432     423       6
     396     402    -432     423       7     396     402    -432     423       8
     396     402     432     438       9     396     402    -432     438      10
     396     402    -432     438      11     396     402    -432     438       8
     390     381     375     396      16     381     375     396     399       4
     381     375     396     402      17     381     375    -396     402      18
     381     375    -396     402       7     381     375    -396     402       8
     375     396     402     405       3     375     396     402     432       3
     369     375     381     390      16     369     375     396     399       4
     369     375     396     402      19     369     375    -396     402      20
     369     375    -396     402      21     369     375    -396     402       8
     441     438     444     450       3     438     444     450     456       5
     438     444    -450     456       6     438     444    -450     456       7
     438     444    -450     456       8     438     444     450     480       9
     438     444    -450     480      10     438     444    -450     480      11
     438     444    -450     480       8     432     438     444     450       3
     423     432     438     441       4     423     432     438     444      17
     423     432    -438     444      18     423     432    -438     444       7
     423     432    -438     444       8     414     405    -402     432       4
     414     423     432     438      16     405     402    -432     423       4
     405     402     432     438       4     405     414    -423     432      27
     405     414    -423     432      28     405     414    -423     432      29
     402     405    -414     423      16     402     432    -423     414      16
     402     432     438     441       4     402     432     438     444      19
     402     432    -438     444      20     402     432    -438     444      21
     402     432    -438     444       8     483     480     486     492       3
     480     486     492     498       5     480     486    -492     498       6
     480     486    -492     498       7     480     486    -492     498       8
     480     486     492     513       9     480     486    -492     513      10
     480     486    -492     513      11     480     486    -492     513       8
     474     456     450     480      16     462     456     450     480      16
     456     450     480     483       4     456     450     480     486      17
     456     450    -480     486      18     456     450    -480     486       7
     456     450    -480     486       8     450     480     486     492       3
     444     450     456     462      16     444     450     456     474      16
     444     450     480     483       4     444     450     480     486      19
     444     450    -480     486      20     444     450    -480     486      21
     444     450    -480     486       8     516     513     519     522       3
     516     513     519     549       3     513     519     522     531       5
     513     519    -522     531       6     513     519    -522     531       7
     513     519    -522     531       8     513     519     549     540       5
     513     519    -549     540       6     513     519    -549     540       7
     513     519    -549     540       8     513     519     549     555       9
     513     519    -549     555      10     513     519    -549     555      11
     513     519    -549     555       8     507     498     492     513      16
     498     492     513     516       4     498     492     513     519      17
     498     492    -513     519      18     498     492    -513     519       7
     498     492    -513     519       8     492     513     519     522       3
     492     513     519     549       3     486     492     498     507      16
     486     492     513     516       4     486     492     513     519      19
     486     492    -513     519      20     486     492    -513     519      21
     486     492    -513     519       8     558     555     561     567       3
     555     561     567     573       5     555     561    -567     573       6
     555     561    -567     573       7     555     561    -567     573       8
     555     561     567     588       9     555     561    -567     588      10
     555     561    -567     588      11     555     561    -567     588       8
     549     555     561     567       3     540     549     555     558       4
     540     549     555     561      17     540     549    -555     561      18
     540     549    -555     561       7     540     549    -555     561       8
     531     522    -519     549       4     531     540     549     555      16
     522     519    -549     540       4     522     519     549     555       4
     522     531    -540     549      27     522     531    -540     549      28
     522     531    -540     549      29     519     522    -531     540      16
     519     549    -540     531      16     519     549     555     558       4
     519     549     555     561      19     519     549    -555     561      20
     519     549    -555     561      21     519     549    -555     561       8
     591     588     594     600       3     588     594     600     606       5
     588     594    -600     606       6     588     594    -600     606       7
     588     594    -600     606       8     588     594     600     651       9
     588     594    -600     651      10     588     594    -600     651      11
     588     594    -600     651       8     582     573     567     588      16
     573     567     588     591       4     573     567     588     594      17
     573     567    -588     594      18     573     567    -588     594       7
     573     567    -588     594       8     567     588     594     600       3
     561     567     573     582      16     561     567     588     591       4
     561     567     588     594      19     561     567    -588     594      20
     561     567    -588     594      21     561     567    -588     594       8
     654     651     657     663       3     651     657     663     669       5
     651     657    -663     669       6     651     657    -663     669       7
     651     657    -663     669       8     651     657     663     684       9
     651     657    -663     684      10     651     657    -663     684      11
     651     657    -663     684       8     633     630     639     645      14
     624     618     615     645      14     624     630    -639     645      14
     618     615     645     639      14     618     624     630     633      14
     618     624    -630     639      14     615     606     600     651      16
     615     618     624     630      14     615     645    -639     630      14
     606     600     651     654       4     606     600     651     657      17
     606     600    -651     657      18     606     600    -651     657       7
     606     600    -651     657       8     606     615     618     624      14
     606     615     645     639      14     600     606     615     618       4
     600     606     615     645       4     600     651     657     663       3
     594     600     606     615      16     594     600     651     654       4
     594     600     651     657      19     594     600    -651     657      20
     594     600    -651     657      21     594     600    -651     657       8
     687     684     690     693       3     687     684     690     720       3
     684     690     693     702       5     684     690    -693     702       6
     684     690    -693     702       7     684     690    -693     702       8
     684     690     720     711       5     684     690    -720     711       6
     684     690    -720     711       7     684     690    -720     711       8
     684     690     720     726       9     684     690    -720     726      10
     684     690    -720     726      11     684     690    -720     726       8
     678     669     663     684      16     669     663     684     687       4
     669     663     684     690      17     669     663    -684     690      18
     669     663    -684     690       7     669     663    -684     690       8
     663     684     690     693       3     663     684     690     720       3
     657     663     669     678      16     657     663     684     687       4
     657     663     684     690      19     657     663    -684     690      20
     657     663    -684     690      21     657     663    -684     690       8
     729     726     732     738       3     726     732     738     744       5
     726     732    -738     744       6     726     732    -738     744       7
     726     732    -738     744       8     726     732     738     768       9
     726     732    -738     768      10     726     732    -738     768      11
     726     732    -738     768       8     720     726     732     738       3
     711     720     726     729       4     711     720     726     732      17
     711     720    -726     732      18     711     720    -726     732       7
     711     720    -726     732       8     702     693    -690     720       4
     702     711     720     726      16     693     690    -720     711       4
     693     690     720     726       4     693     702    -711     720      27
     693     702    -711     720      28     693     702    -711     720      29
     690     693    -702     711      16     690     720    -711     702      16
     690     720     726     729       4     690     720     726     732      19
     690     720    -726     732      20     690     720    -726     732      21
     690     720    -726     732       8     771     768     774     780       3
     768     774     780     786       5     768     774    -780     786       6
     768     774    -780     786       7     768     774    -780     786       8
     768     774     780     801       9     768     774    -780     801      10
     768     774    -780     801      11     768     774    -780     801       8
     762     744     738     768      16     750     744     738     768      16
     744     738     768     771       4     744     738     768     774      17
     744     738    -768     774      18     744     738    -768     774       7
     744     738    -768     774       8     738     768     774     780       3
     732     738     744     750      16     732     738     744     762      16
     732     738     768     771       4     732     738     768     774      19
     732     738    -768     774      20     732     738    -768     774      21
     732     738    -768     774       8     804     801     807     810       3
     804     801     807     837       3     801     807     810     819       5
     801     807    -810     819       6     801     807    -810     819       7
     801     807    -810     819       8     801     807     837     828       5
     801     807    -837     828       6     801     807    -837     828       7
     801     807    -837     828       8     801     807     837     843       9
     801     807    -837     843      10     801     807    -837     843      11
     801     807    -837     843       8     795     786     780     801      16
     786     780     801     804       4     786     780     801     807      17
     786     780    -801     807      18     786     780    -801     807       7
     786     780    -801     807       8     780     801     807     810       3
     780     801     807     837       3     774     780     786     795      16
     774     780     801     804       4     774     780     801     807      19
     774     780    -801     807      20     774     780    -801     807      21
     774     780    -801     807       8     846     843     849     855       3
     843     849     855     861       5     843     849    -855     861       6
     843     849    -855     861       7     843     849    -855     861       8
     843     849     855     876       9     843     849    -855     876      10
     843     849    -855     876      11     843     849    -855     876       8
     837     843     849     855       3     828     837     843     846       4
     828     837     843     849      17     828     837    -843     849      18
     828     837    -843     849       7     828     837    -843     849       8
     819     810    -807     837       4     819     828     837     843      16
     810     807    -837     828       4     810     807     837     843       4
     810     819    -828     837      27     810     819    -828     837      28
     810     819    -828     837      29     807     810    -819     828      16
     807     837    -828     819      16     807     837     843     846       4
     807     837     843     849      19     807     837    -843     849      20
     807     837    -843     849      21     807     837    -843     849       8
     870     861     855     876      16     861     855     876     879       4
     861     855     876     882      17     861     855    -876     882      18
     861     855    -876     882       7     861     855    -876     882       8
     849     855     861     870      16     849     855     876     879       4
     849     855     876     882      19     849     855    -876     882      20
     849     855    -876     882      21     849     855    -876     882       8
       3      18     -12     -15      30      24      81     -75     -78      30
      48      63     -54     -57      31      42      69     -39     -30      31
      87     114    -108    -111      30     144     156    -150    -153      30
     108     117    -114    -144      32     162     198    -192    -195      30
     204     231    -225    -228      30     261     273    -267    -270      30
     225     234    -231    -261      32     279     306    -300    -303      30
     312     369    -363    -366      30     336     351    -342    -345      31
     330     357    -327    -318      31     375     402    -396    -399      30
     432     444    -438    -441      30     396     405    -402    -432      32
     450     486    -480    -483      30     492     519    -513    -516      30
     549     561    -555    -558      30     513     522    -519    -549      32
     567     594    -588    -591      30     600     657    -651    -654      30
     624     639    -630    -633      31     618     645    -615    -606      31
     663     690    -684    -687      30     720     732    -726    -729      30
     684     693    -690    -720      32     738     774    -768    -771      30
     780     807    -801    -804      30     837     849    -843    -846      30
     801     810    -807    -837      32     855     882    -876    -879      30
%FLAG EXCLUDED_ATOMS_LIST                                                       
%FORMAT(10I8)                                                                   
       2       3       4       5       6       7       3       4       5       6
       7       8       9       4       5       6       7       5       6       7
       6       7       8       9      10      11      26       7       8       9
       8       9      10      11      12      13      14      26      27      28
       9      10      11      26      10      11      12      13      14      15
      24      26      27      28      29      30      11      12      13      14
      26      27      28      12      13      14      15      16      17      22
      24      25      26      27      28      13      14      15      24      26
      14      15      24      26      15      16      17      18      19      22
      23      24      25      26      16      17      18      19      20      22
      24      25      17      18      19      24      18      19      20      21
      22      23      24      19      20      22      20      21      22      23
      24      25      21      22      23      24      22      23      24      25
      24      25      25       0      27      28      29      30      31      32
      37      28      29      30      29      30      31      32      33      34
      35      37      38      39      30      31      32      37      31      32
      33      34      35      36      37      38      39      40      49      32
      33      34      35      37      38      39      33      34      35      36
      37      38      39      34      35      36      37      35      36      37
      36      37       0      38      39      40      41      42      43      46
      49      50      51      39      40      49      40      41      42      43
      44      45      46      47      48      49      50      51      52      53
      41      42      43      44      45      46      47      48      49      50
      51      42      43      44      45      46      49      43      44      45
      46      49      44      45      46      47      48      49      50      51
      45      46      47      48      49      46      47      48      49      47
      48      49      50      51      52      53      48      49      50      51
      49      50      51      50      51      52      53      54      55      51
      52      53      52      53      54      55      56      57      65      53
      54      55      54      55      56      57      58      59      63      65
      66      67      55      56      57      65      56      57      58      59
      60      61      62      63      64      65      66      67      68      69
      57      58      59      63      65      66      67      58      59      60
      61      62      63      64      65      66      67      59      60      61
      62      63      64      65      60      61      62      63      64      65
      61      62      63      62      63      63      64      65       0      66
      67      68      69      70      71      76      67      68      69      68
      69      70      71      72      73      74      76      77      78      69
      70      71      76      70      71      72      73      74      75      76
      77      78      79      88      71      72      73      74      76      77
      78      72      73      74      75      76      77      78      73      74
      75      76      74      75      76      75      76       0      77      78
      79      80      81      82      85      88      89      90      78      79
      88      79      80      81      82      83      84      85      86      87
      88      89      90      91      92      80      81      82      83      84
      85      86      87      88      89      90      81      82      83      84
      85      88      82      83      84      85      88      83      84      85
      86      87      88      89      90      84      85      86      87      88
      85      86      87      88      86      87      88      89      90      91
      92      87      88      89      90      88      89      90      89      90
      91      92      93      94      90      91      92      91      92      93
      94      95      96     101      92      93      94      93      94      95
      96      97      98      99     101     102     103      94      95      96
     101      95      96      97      98      99     100     101     102     103
     104     105      96      97      98      99     101     102     103      97
      98      99     100     101     102     103      98      99     100     101
      99     100     101     100     101       0     102     103     104     105
     106     107     122     103     104     105     104     105     106     107
     108     109     110     122     123     124     105     106     107     122
     106     107     108     109     110     111     120     122     123     124
     125     126     107     108     109     110     122     123     124     108
     109     110     111     112     113     118     120     121     122     123
     124     109     110     111     120     122     110     111     120     122
     111     112     113     114     115     118     119     120     121     122
     112     113     114     115     116     118     120     121     113     114
     115     120     114     115     116     117     118     119     120     115
     116     118     116     117     118     119     120     121     117     118
     119     120     118     119     120     121     120     121     121       0
     123     124     125     126     127     128     133     124     125     126
     125     126     127     128     129     130     131     133     134     135
     126     127     128     133     127     128     129     130     131     132
     133     134     135     136     145     128     129     130     131     133
     134     135     129     130     131     132     133     134     135     130
     131     132     133     131     132     133     132     133       0     134
     135     136     137     138     139     142     145     146     147     135
     136     145     136     137     138     139     140     141     142     143
     144     145     146     147     148     149     137     138     139     140
     141     142     143     144     145     146     147     138     139     140
     141     142     145     139     140     141     142     145     140     141
     142     143     144     145     146     147     141     142     143     144
     145     142     143     144     145     143     144     145     146     147
     148     149     144     145     146     147     145     146     147     146
     147     148     149     150     151     147     148     149     148     149
     150     151     152     153     161     149     150     151     150     151
     152     153     154     155     159     161     162     163     151     152
     153     161     152     153     154     155     156     157     158     159
     160     161     162     163     164     165     153     154     155     159
     161     162     163     154     155     156     157     158     159     160
     161     162     163     155     156     157     158     159     160     161
     156     157     158     159     160     161     157     158     159     158
     159     159     160     161       0     162     163     164     165     166
     167     172     163     164     165     164     165     166     167     168
     169     170     172     173     174     165     166     167     172     166
     167     168     169     170     171     172     173     174     175     184
     167     168     169     170     172     173     174     168     169     170
     171     172     173     174     169     170     171     172     170     171
     172     171     172       0     173     174     175     176     177     178
     181     184     185     186     174     175     184     175     176     177
     178     179     180     181     182     183     184     185     186     187
     188     176     177     178     179     180     181     182     183     184
     185     186     177     178     179     180     181     184     178     179
     180     181     184     179     180     181     182     183     184     185
     186     180     181     182     183     184     181     182     183     184
     182     183     184     185     186     187     188     183     184     185
     186     184     185     186     185     186     187     188     189     190
     186     187     188     187     188     189     190     191     192     197
     188     189     190     189     190     191     192     193     194     195
     197     198     199     190     191     192     197     191     192     193
     194     195     196     197     198     199     200     201     192     193
     194     195     197     198     199     193     194     195     196     197
     198     199     194     195     196     197     195     196     197     196
     197       0     198     199     200     201     202     203     218     199
     200     201     200     201     202     203     204     205     206     218
     219     220     201     202     203     218     202     203     204     205
     206     207     216     218     219     220     221     222     203     204
     205     206     218     219     220     204     205     206     207     208
     209     214     216     217     218     219     220     205     206     207
     216     218     206     207     216     218     207     208     209     210
     211     214     215     216     217     218     208     209     210     211
     212     214     216     217     209     210     211     216     210     211
     212     213     214     215     216     211     212     214     212     213
     214     215     216     217     213     214     215     216     214     215
     216     217     216     217     217       0     219     220     221     222
     223     224     229     220     221     222     221     222     223     224
     225     226     227     229     230     231     222     223     224     229
     223     224     225     226     227     228     229     230     231     232
     241     224     225     226     227     229     230     231     225     226
     227     228     229     230     231     226     227     228     229     227
     228     229     228     229       0     230     231     232     233     234
     235     238     241     242     243     231     232     241     232     233
     234     235     236     237     238     239     240     241     242     243
     244     245     233     234     235     236     237     238     239     240
     241     242     243     234     235     236     237     238     241     235
     236     237     238     241     236     237     238     239     240     241
     242     243     237     238     239     240     241     238     239     240
     241     239     240     241     242     243     244     245     240     241
     242     243     241     242     243     242     243     244     245     246
     247     243     244     245     244     245     246     247     248     249
     257     245     246     247     246     247     248     249     250     251
     255     257     258     259     247     248     249     257     248     249
     250     251     252     253     254     255     256     257     258     259
     260     261     249     250     251     255     257     258     259     250
     251     252     253     254     255     256     257     258     259     251
     252     253     254     255     256     257     252     253     254     255
     256     257     253     254     255     254     255     255     256     257
       0     258     259     260     261     262     263     268     259     260
     261     260     261     262     263     264     265     266     268     269
     270     261     262     263     268     262     263     264     265     266
     267     268     269     270     271     280     263     264     265     266
     268     269     270     264     265     266     267     268     269     270
     265     266     267     268     266     267     268     267     268       0
     269     270     271     272     273     274     277     280     281     282
     270     271     280     271     272     273     274     275     276     277
     278     279     280     281     282     283     284     272     273     274
     275     276     277     278     279     280     281     282     273     274
     275     276     277     280     274     275     276     277     280     275
     276     277     278     279     280     281     282     276     277     278
     279     280     277     278     279     280     278     279     280     281
     282     283     284     279     280     281     282     280     281     282
     281     282     283     284     285     286     282     283     284     283
     284     285     286     287     288     293     284     285     286     285
     286     287     288     289     290     291     293     294     295     286
     287     288     293     287     288     289     290     291     292     293
     294     295     296     297     288     289     290     291     293     294
     295     289     290     291     292     293     294     295     290     291
     292     293     291     292     293     292     293       0     294     295
     296     297     295     296     297     296     297     297       0
%FLAG HBOND_ACOEF                                                               
%FORMAT(5E16.8)                                                                 

%FLAG HBOND_BCOEF                                                               
%FORMAT(5E16.8)                                                                 

%FLAG HBCUT                                                                     
%FORMAT(5E16.8)                                                                 

%FLAG AMBER_ATOM_TYPE                                                           
%FORMAT(20a4)                                                                   
HC  CT  HC  HC  C   O   N   H   CT  H1  CT  HC  HC  CA  CA  HA  CA  HA  C   OH  
HO  CA  HA  CA  HA  C   O   N   H   CT  H1  CT  H1  H1  OH  HO  C   O   N   CT  
H1  H1  CT  HC  HC  CT  HC  HC  CT  H1  C   O   N   H   CT  H1  CT  H1  CT  HC  
HC  HC  OH  HO  C   O   N   H   CT  H1  CT  H1  H1  OH  HO  C   O   N   CT  H1  
H1  CT  HC  HC  CT  HC  HC  CT  H1  C   O   N   H   CT  H1  CT  H1  H1  OH  HO  
C   O   N   H   CT  H1  CT  HC  HC  CA  CA  HA  CA  HA  C   OH  HO  CA  HA  CA  
HA  C   O   N   H   CT  H1  CT  H1  H1  OH  HO  C   O   N   CT  H1  H1  CT  HC  
HC  CT  HC  HC  CT  H1  C   O   N   H   CT  H1  CT  H1  CT  HC  HC  HC  OH  HO  
C   O   N   H   CT  H1  CT  H1  H1  OH  HO  C   O   N   CT  H1  H1  CT  HC  HC  
CT  HC  HC  CT  H1  C   O   N   H   CT  H1  CT  H1  H1  OH  HO  C   O   N   H   
CT  H1  CT  HC  HC  CA  CA  HA  CA  HA  C   OH  HO  CA  HA  CA  HA  C   O   N   
H   CT  H1  CT  H1  H1  OH  HO  C   O   N   CT  H1  H1  CT  HC  HC  CT  HC  HC  
CT  H1  C   O   N   H   CT  H1  CT  H1  CT  HC  HC  HC  OH  HO  C   O   N   H   
CT  H1  CT  H1  H1  OH  HO  C   O   N   CT  H1  H1  CT  HC  HC  CT  HC  HC  CT  
H1  C   O   N   H   CT  H1  CT  H1  H1  OH  HO  C   O   N   H   H   
%FLAG TREE_CHAIN_CLASSIFICATION                                                 
%FORMAT(20a4)                                                                   
BLA BLA BLA BLA BLA BLA M   E   M   E   3   E   E   B   B   E   B   E   B   S   
E   S   E   S   E   M   E   M   E   M   E   3   E   E   S   E   M   E   M   3   
E   E   3   E   E   B   E   E   M   E   M   E   M   E   M   E   3   E   3   E   
E   E   S   E   M   E   M   E   M   E   3   E   E   S   E   M   E   M   3   E   
E   3   E   E   B   E   E   M   E   M   E   M   E   M   E   3   E   E   S   E   
M   E   M   E   M   E   3   E   E   B   B   E   B   E   B   S   E   S   E   S   
E   M   E   M   E   M   E   3   E   E   S   E   M   E   M   3   E   E   3   E   
E   B   E   E   M   E   M   E   M   E   M   E   3   E   3   E   E   E   S   E   
M   E   M   E   M   E   3   E   E   S   E   M   E   M   3   E   E   3   E   E   
B   E   E   M   E   M   E   M   E   M   E   3   E   E   S   E   M   E   M   E   
M   E   3   E   E   B   B   E   B   E   B   S   E   S   E   S   E   M   E   M   
E   M   E   3   E   E   S   E   M   E   M   3   E   E   3   E   E   B   E   E   
M   E   M   E   M   E   M   E   3   E   3   E   E   E   S   E   M   E   M   E   
M   E   3   E   E   S   E   M   E   M   3   E   E   3   E   E   B   E   E   M   
E   M   E   M   E   M   E   3   E   E   S   E   M   E   BLA BLA BLA 
%FLAG JOIN_ARRAY                                                                
%FORMAT(10I8)                                                                   
       0       0       0       0       0       0       0       0       0       0
       0       0       0       0       0       0       0       0       0       0
       0       0       0       0       0       0       0       0       0       0
       0       0       0       0       0       0       0       0       0       0
       0       0       0       0       0       0       0       0       0       0
       0       0       0       0       0       0       0       0       0       0
       0       0       0       0       0       0       0       0       0       0
       0       0       0       0       0       0       0       0       0       0
       0       0       0       0       0       0       0       0       0       0
       0       0       0       0       0       0       0       0       0       0
       0       0       0       0       0       0       0       0       0       0
       0       0       0       0       0       0       0       0       0       0
       0       0       0       0       0       0       0       0       0       0
       0       0       0       0       0       0       0       0       0       0
       0       0       0       0       0       0       0       0       0       0
       0       0       0       0       0       0       0       0       0       0
       0       0       0       0       0       0       0       0       0       0
       0       0       0       0       0       0       0       0       0       0
       0       0       0       0       0       0       0       0       0       0
       0       0       0       0       0       0       0       0       0       0
       0       0       0       0       0       0       0       0       0       0
       0       0       0       0       0       0       0       0       0       0
       0       0       0       0       0       0       0       0       0       0
       0       0       0       0       0       0       0       0       0       0
       0       0       0       0       0       0       0       0       0       0
       0       0       0       0       0       0       0       0       0       0
       0       0       0       0       0       0       0       0       0       0
       0       0       0       0       0       0       0       0       0       0
       0       0       0       0       0       0       0       0       0       0
       0       0       0       0       0       0       0
%FLAG IROTAT                                                                    
%FORMAT(10I8)                                                                   
       0       0       0       0       0       0       0       0       0       0
       0       0       0       0       0       0       0       0       0       0
       0       0       0       0       0       0       0       0       0       0
       0       0       0       0       0       0       0       0       0       0
       0       0       0       0       0       0       0       0       0       0
       0       0       0       0       0       0       0       0       0       0
       0       0       0       0       0       0       0       0       0       0
       0       0       0       0       0       0       0       0       0       0
       0       0       0       0       0       0       0       0       0       0
       0       0       0       0       0       0       0       0       0       0
       0       0       0       0       0       0       0       0       0       0
       0       0       0       0       0       0       0       0       0       0
       0       0       0       0       0       0       0       0       0       0
       0       0       0       0       0       0       0       0       0       0
       0       0       0       0       0       0       0       0       0       0
       0       0       0       0       0       0       0       0       0       0
       0       0       0       0       0       0       0       0       0       0
       0       0       0       0       0       0       0       0       0       0
       0       0       0       0       0       0       0       0       0       0
       0       0       0       0       0       0       0       0       0       0
       0       0       0       0       0       0       0       0       0       0
       0       0       0       0       0       0       0       0       0       0
       0       0       0       0       0       0       0       0       0       0
       0       0       0       0       0       0       0       0       0       0
       0       0       0       0       0       0       0       0       0       0
       0       0       0       0       0       0       0       0       0       0
       0       0       0       0       0       0       0       0       0       0
       0       0       0       0       0       0       0       0       0       0
       0       0       0       0       0       0       0       0       0       0
       0       0       0       0       0       0       0
%FLAG RADIUS_SET                                                                
%FORMAT(1a80)                                                                   
modified Bondi radii (mbondi)                                                   
%FLAG RADII                                                                     
%FORMAT(5E16.8)                                                                 
  1.30000000E+00  1.70000000E+00  1.30000000E+00  1.30000000E+00  1.70000000E+00
  1.50000000E+00  1.55000000E+00  1.30000000E+00  1.70000000E+00  1.30000000E+00
  1.70000000E+00  1.30000000E+00  1.30000000E+00  1.70000000E+00  1.70000000E+00
  1.30000000E+00  1.70000000E+00  1.30000000E+00  1.70000000E+00  1.50000000E+00
  8.00000000E-01  1.70000000E+00  1.30000000E+00  1.70000000E+00  1.30000000E+00
  1.70000000E+00  1.50000000E+00  1.55000000E+00  1.30000000E+00  1.70000000E+00
  1.30000000E+00  1.70000000E+00  1.30000000E+00  1.30000000E+00  1.50000000E+00
  8.00000000E-01  1.70000000E+00  1.50000000E+00  1.55000000E+00  1.70000000E+00
  1.30000000E+00  1.30000000E+00  1.70000000E+00  1.30000000E+00  1.30000000E+00
  1.70000000E+00  1.30000000E+00  1.30000000E+00  1.70000000E+00  1.30000000E+00
  1.70000000E+00  1.50000000E+00  1.55000000E+00  1.30000000E+00  1.70000000E+00
  1.30000000E+00  1.70000000E+00  1.30000000E+00  1.70000000E+00  1.30000000E+00
  1.30000000E+00  1.30000000E+00  1.50000000E+00  8.00000000E-01  1.70000000E+00
  1.50000000E+00  1.55000000E+00  1.30000000E+00  1.70000000E+00  1.30000000E+00
  1.70000000E+00  1.30000000E+00  1.30000000E+00  1.50000000E+00  8.00000000E-01
  1.70000000E+00  1.50000000E+00  1.55000000E+00  1.70000000E+00  1.30000000E+00
  1.30000000E+00  1.70000000E+00  1.30000000E+00  1.30000000E+00  1.70000000E+00
  1.30000000E+00  1.30000000E+00  1.70000000E+00  1.30000000E+00  1.70000000E+00
  1.50000000E+00  1.55000000E+00  1.30000000E+00  1.70000000E+00  1.30000000E+00
  1.70000000E+00  1.30000000E+00  1.30000000E+00  1.50000000E+00  8.00000000E-01
  1.70000000E+00  1.50000000E+00  1.55000000E+00  1.30000000E+00  1.70000000E+00
  1.30000000E+00  1.70000000E+00  1.30000000E+00  1.30000000E+00  1.70000000E+00
  1.70000000E+00  1.30000000E+00  1.70000000E+00  1.30000000E+00  1.70000000E+00
  1.50000000E+00  8.00000000E-01  1.70000000E+00  1.30000000E+00  1.70000000E+00
  1.30000000E+00  1.70000000E+00  1.50000000E+00  1.55000000E+00  1.30000000E+00
  1.70000000E+00  1.30000000E+00  1.70000000E+00  1.30000000E+00  1.30000000E+00
  1.50000000E+00  8.00000000E-01  1.70000000E+00  1.50000000E+00  1.55000000E+00
  1.70000000E+00  1.30000000E+00  1.30000000E+00  1.70000000E+00  1.30000000E+00
  1.30000000E+00  1.70000000E+00  1.30000000E+00  1.30000000E+00  1.70000000E+00
  1.30000000E+00  1.70000000E+00  1.50000000E+00  1.55000000E+00  1.30000000E+00
  1.70000000E+00  1.30000000E+00  1.70000000E+00  1.30000000E+00  1.70000000E+00
  1.30000000E+00  1.30000000E+00  1.30000000E+00  1.50000000E+00  8.00000000E-01
  1.70000000E+00  1.50000000E+00  1.55000000E+00  1.30000000E+00  1.70000000E+00
  1.30000000E+00  1.70000000E+00  1.30000000E+00  1.30000000E+00  1.50000000E+00
  8.00000000E-01  1.70000000E+00  1.50000000E+00  1.55000000E+00  1.70000000E+00
  1.30000000E+00  1.30000000E+00  1.70000000E+00  1.30000000E+00  1.30000000E+00
  1.70000000E+00  1.30000000E+00  1.30000000E+00  1.70000000E+00  1.30000000E+00
  1.70000000E+00  1.50000000E+00  1.55000000E+00  1.30000000E+00  1.70000000E+00
  1.30000000E+00  1.70000000E+00  1.30000000E+00  1.30000000E+00  1.50000000E+00
  8.00000000E-01  1.70000000E+00  1.50000000E+00  1.55000000E+00  1.30000000E+00
  1.70000000E+00  1.30000000E+00  1.70000000E+00  1.30000000E+00  1.30000000E+00
  1.70000000E+00  1.70000000E+00  1.30000000E+00  1.70000000E+00  1.30000000E+00
  1.70000000E+00  1.50000000E+00  8.00000000E-01  1.70000000E+00  1.30000000E+00
  1.70000000E+00  1.30000000E+00  1.70000000E+00  1.50000000E+00  1.55000000E+00
  1.30000000E+00  1.70000000E+00  1.30000000E+00  1.70000000E+00  1.30000000E+00
  1.30000000E+00  1.50000000E+00  8.00000000E-01  1.70000000E+00  1.50000000E+00
  1.55000000E+00  1.70000000E+00  1.30000000E+00  1.30000000E+00  1.70000000E+00
  1.30000000E+00  1.30000000E+00  1.70000000E+00  1.30000000E+00  1.30000000E+00
  1.70000000E+00  1.30000000E+00  1.70000000E+00  1.50000000E+00  1.55000000E+00
  1.30000000E+00  1.70000000E+00  1.30000000E+00  1.70000000E+00  1.30000000E+00
  1.70000000E+00  1.30000000E+00  1.30000000E+00  1.30000000E+00  1.50000000E+00
  8.00000000E-01  1.70000000E+00  1.50000000E+00  1.55000000E+00  1.30000000E+00
  1.70000000E+00  1.30000000E+00  1.70000000E+00  1.30000000E+00  1.30000000E+00
  1.50000000E+00  8.00000000E-01  1.70000000E+00  1.50000000E+00  1.55000000E+00
  1.70000000E+00  1.30000000E+00  1.30000000E+00  1.70000000E+00  1.30000000E+00
  1.30000000E+00  1.70000000E+00  1.30000000E+00  1.30000000E+00  1.70000000E+00
  1.30000000E+00  1.70000000E+00  1.50000000E+00  1.55000000E+00  1.30000000E+00
  1.70000000E+00  1.30000000E+00  1.70000000E+00  1.30000000E+00  1.30000000E+00
  1.50000000E+00  8.00000000E-01  1.70000000E+00  1.50000000E+00  1.55000000E+00
  1.30000000E+00  1.30000000E+00
%FLAG SCREEN                                                                    
%FORMAT(5E16.8)                                                                 
  8.50000000E-01  7.20000000E-01  8.50000000E-01  8.50000000E-01  7.20000000E-01
  8.50000000E-01  7.90000000E-01  8.50000000E-01  7.20000000E-01  8.50000000E-01
  7.20000000E-01  8.50000000E-01  8.50000000E-01  7.20000000E-01  7.20000000E-01
  8.50000000E-01  7.20000000E-01  8.50000000E-01  7.20000000E-01  8.50000000E-01
  8.50000000E-01  7.20000000E-01  8.50000000E-01  7.20000000E-01  8.50000000E-01
  7.20000000E-01  8.50000000E-01  7.90000000E-01  8.50000000E-01  7.20000000E-01
  8.50000000E-01  7.20000000E-01  8.50000000E-01  8.50000000E-01  8.50000000E-01
  8.50000000E-01  7.20000000E-01  8.50000000E-01  7.90000000E-01  7.20000000E-01
  8.50000000E-01  8.50000000E-01  7.20000000E-01  8.50000000E-01  8.50000000E-01
  7.20000000E-01  8.50000000E-01  8.50000000E-01  7.20000000E-01  8.50000000E-01
  7.20000000E-01  8.50000000E-01  7.90000000E-01  8.50000000E-01  7.20000000E-01
  8.50000000E-01  7.20000000E-01  8.50000000E-01  7.20000000E-01  8.50000000E-01
  8.50000000E-01  8.50000000E-01  8.50000000E-01  8.50000000E-01  7.20000000E-01
  8.50000000E-01  7.90000000E-01  8.50000000E-01  7.20000000E-01  8.50000000E-01
  7.20000000E-01  8.50000000E-01  8.50000000E-01  8.50000000E-01  8.50000000E-01
  7.20000000E-01  8.50000000E-01  7.90000000E-01  7.20000000E-01  8.50000000E-01
  8.50000000E-01  7.20000000E-01  8.50000000E-01  8.50000000E-01  7.20000000E-01
  8.50000000E-01  8.50000000E-01  7.20000000E-01  8.50000000E-01  7.20000000E-01
  8.50000000E-01  7.90000000E-01  8.50000000E-01  7.20000000E-01  8.50000000E-01
  7.20000000E-01  8.50000000E-01  8.50000000E-01  8.50000000E-01  8.50000000E-01
  7.20000000E-01  8.50000000E-01  7.90000000E-01  8.50000000E-01  7.20000000E-01
  8.50000000E-01  7.20000000E-01  8.50000000E-01  8.50000000E-01  7.20000000E-01
  7.20000000E-01  8.50000000E-01  7.20000000E-01  8.50000000E-01  7.20000000E-01
  8.50000000E-01  8.50000000E-01  7.20000000E-01  8.50000000E-01  7.20000000E-01
  8.50000000E-01  7.20000000E-01  8.50000000E-01  7.90000000E-01  8.50000000E-01
  7.20000000E-01  8.50000000E-01  7.20000000E-01  8.50000000E-01  8.50000000E-01
  8.50000000E-01  8.50000000E-01  7.20000000E-01  8.50000000E-01  7.90000000E-01
  7.20000000E-01  8.50000000E-01  8.50000000E-01  7.20000000E-01  8.50000000E-01
  8.50000000E-01  7.20000000E-01  8.50000000E-01  8.50000000E-01  7.20000000E-01
  8.50000000E-01  7.20000000E-01  8.50000000E-01  7.90000000E-01  8.50000000E-01
  7.20000000E-01  8.50000000E-01  7.20000000E-01  8.50000000E-01  7.20000000E-01
  8.50000000E-01  8.50000000E-01  8.50000000E-01  8.50000000E-01  8.50000000E-01
  7.20000000E-01  8.50000000E-01  7.90000000E-01  8.50000000E-01  7.20000000E-01
  8.50000000E-01  7.20000000E-01  8.50000000E-01  8.50000000E-01  8.50000000E-01
  8.50000000E-01  7.20000000E-01  8.50000000E-01  7.90000000E-01  7.20000000E-01
  8.50000000E-01  8.50000000E-01  7.20000000E-01  8.50000000E-01  8.50000000E-01
  7.20000000E-01  8.50000000E-01  8.50000000E-01  7.20000000E-01  8.50000000E-01
  7.20000000E-01  8.50000000E-01  7.90000000E-01  8.50000000E-01  7.20000000E-01
  8.50000000E-01  7.20000000E-01  8.50000000E-01  8.50000000E-01  8.50000000E-01
  8.50000000E-01  7.20000000E-01  8.50000000E-01  7.90000000E-01  8.50000000E-01
  7.20000000E-01  8.50000000E-01  7.20000000E-01  8.50000000E-01  8.50000000E-01
  7.20000000E-01  7.20000000E-01  8.50000000E-01  7.20000000E-01  8.50000000E-01
  7.20000000E-01  8.50000000E-01  8.50000000E-01  7.20000000E-01  8.50000000E-01
  7.20000000E-01  8.50000000E-01  7.20000000E-01  8.50000000E-01  7.90000000E-01
  8.50000000E-01  7.20000000E-01  8.50000000E-01  7.20000000E-01  8.50000000E-01
  8.50000000E-01  8.50000000E-01  8.50000000E-01  7.20000000E-01  8.50000000E-01
  7.90000000E-01  7.20000000E-01  8.50000000E-01  8.50000000E-01  7.20000000E-01
  8.50000000E-01  8.50000000E-01  7.20000000E-01  8.50000000E-01  8.50000000E-01
  7.20000000E-01  8.50000000E-01  7.20000000E-01  8.50000000E-01  7.90000000E-01
  8.50000000E-01  7.20000000E-01  8.50000000E-01  7.20000000E-01  8.50000000E-01
  7.20000000E-01  8.50000000E-01  8.50000000E-01  8.50000000E-01  8.50000000E-01
  8.50000000E-01  7.20000000E-01  8.50000000E-01  7.90000000E-01  8.50000000E-01
  7.20000000E-01  8.50000000E-01  7.20000000E-01  8.50000000E-01  8.50000000E-01
  8.50000000E-01  8.50000000E-01  7.20000000E-01  8.50000000E-01  7.90000000E-01
  7.20000000E-01  8.50000000E-01  8.50000000E-01  7.20000000E-01  8.50000000E-01
  8.50000000E-01  7.20000000E-01  8.50000000E-01  8.50000000E-01  7.20000000E-01
  8.50000000E-01  7.20000000E-01  8.50000000E-01  7.90000000E-01  8.50000000E-01
  7.20000000E-01  8.50000000E-01  7.20000000E-01  8.50000000E-01  8.50000000E-01
  8.50000000E-01  8.50000000E-01  7.20000000E-01  8.50000000E-01  7.90000000E-01
  8.50000000E-01  8.50000000E-01
%FLAG IPOL                                                                      
%FORMAT(1I8)                                                                    
       0
