%VERSION  VERSION_STAMP = V0001.000  DATE = 07/26/23  11:34:29                  
%FLAG TITLE                                                                     
%FORMAT(20a4)                                                                   
default_name                                                                    
%FLAG POINTERS                                                                  
%FORMAT(10I8)                                                                   
     306      13     137     177     315     252     658     628       0       0
    1705      23     177     252     628      18      37      34      14       0
       0       0       0       0       0       0       0       0      21       0
       0
%FLAG ATOM_NAME                                                                 
%FORMAT(20a4)                                                                   
HH31CH3 HH32HH33C   O   N   H   CA  HA  CB  HB2 HB3 CG  CD1 HD1 CE1 HE1 CZ  OH  
HH  CE2 HE2 CD2 HD2 C   O   N   H   CA  HA  CB  HB2 HB3 OG  HG  C   O   N   CD  
HD2 HD3 CG  HG2 HG3 CB  HB2 HB3 CA  HA  C   O   N   H   CA  HA  CB  HB  CG2 HG21
HG22HG23OG1 HG1 C   O   N   H   CA  HA  CB  HB2 HB3 OG  P   O1P O2P O3P C   O   
N   CD  HD2 HD3 CG  HG2 HG3 CB  HB2 HB3 CA  HA  C   O   N   H   CA  HA  CB  HB2 
HB3 OG  HG  C   O   N   H   CA  HA  CB  HB2 HB3 CG  CD1 HD1 CE1 HE1 CZ  OH  HH  
CE2 HE2 CD2 HD2 C   O   N   H   CA  HA  CB  HB2 HB3 OG  HG  C   O   N   CD  HD2 
HD3 CG  HG2 HG3 CB  HB2 HB3 CA  HA  C   O   N   H   CA  HA  CB  HB  CG2 HG21HG22
HG23OG1 HG1 C   O   N   H   CA  HA  CB  HB2 HB3 OG  P   O1P O2P O3P C   O   N   
CD  HD2 HD3 CG  HG2 HG3 CB  HB2 HB3 CA  HA  C   O   N   H   CA  HA  CB  HB2 HB3 
OG  HG  C   O   N   H   CA  HA  CB  HB2 HB3 CG  CD1 HD1 CE1 HE1 CZ  OH  HH  CE2 
HE2 CD2 HD2 C   O   N   H   CA  HA  CB  HB2 HB3 OG  HG  C   O   N   CD  HD2 HD3 
CG  HG2 HG3 CB  HB2 HB3 CA  HA  C   O   N   H   CA  HA  CB  HB  CG2 HG21HG22HG23
OG1 HG1 C   O   N   H   CA  HA  CB  HB2 HB3 OG  P   O1P O2P O3P C   O   N   CD  
HD2 HD3 CG  HG2 HG3 CB  HB2 HB3 CA  HA  C   O   N   H   CA  HA  CB  HB2 HB3 OG  
HG  C   O   N   HN1 HN2 
%FLAG CHARGE                                                                    
%FORMAT(5E16.8)                                                                 
  2.04636429E+00 -6.67300626E+00  2.04636429E+00  2.04636429E+00  1.08823576E+01
 -1.03484442E+01 -7.57501011E+00  4.95464337E+00 -2.55112200E-02  1.59627348E+00
 -2.76978960E-01  5.37557850E-01  5.37557850E-01 -2.00445300E-02 -3.47317038E+00
  3.09596877E+00 -4.26584043E+00  3.01761288E+00  5.87851398E+00 -1.01662212E+01
  7.27434216E+00 -4.26584043E+00  3.01761288E+00 -3.47317038E+00  3.09596877E+00
  1.08841798E+01 -1.03484442E+01 -7.57501011E+00  4.95464337E+00 -4.53735270E-01
  1.53613989E+00  3.85766091E+00  6.41424960E-01  6.41424960E-01 -1.19283176E+01
  7.79003325E+00  1.08841798E+01 -1.03484442E+01 -4.64304204E+00  3.49868160E-01
  7.12491930E-01  7.12491930E-01  3.44401470E-01  3.88134990E-01  3.88134990E-01
 -1.27556100E-01  4.61024190E-01  4.61024190E-01 -4.84713180E-01  1.16804943E+00
  1.07438681E+01 -1.04741780E+01 -7.57501011E+00  4.95464337E+00 -7.08847470E-01
  1.83498561E+00  6.65842842E+00  7.83558900E-02 -4.44259674E+00  1.16987166E+00
  1.16987166E+00  1.16987166E+00 -1.23200970E+01  7.47478746E+00  1.08841798E+01
 -1.03484442E+01 -9.40817349E+00  5.35006728E+00 -5.07859145E+00  3.61809233E+00
  4.62487441E+00  7.87750029E-01  7.87750029E-01 -7.84183925E+00  2.52759337E+01
 -1.79116645E+01 -1.79116645E+01 -1.79116645E+01  9.77808618E+00 -1.06035564E+01
 -4.64304204E+00  3.49868160E-01  7.12491930E-01  7.12491930E-01  3.44401470E-01
  3.88134990E-01  3.88134990E-01 -1.27556100E-01  4.61024190E-01  4.61024190E-01
 -4.84713180E-01  1.16804943E+00  1.07438681E+01 -1.04741780E+01 -7.57501011E+00
  4.95464337E+00 -4.53735270E-01  1.53613989E+00  3.85766091E+00  6.41424960E-01
  6.41424960E-01 -1.19283176E+01  7.79003325E+00  1.08841798E+01 -1.03484442E+01
 -7.57501011E+00  4.95464337E+00 -2.55112200E-02  1.59627348E+00 -2.76978960E-01
  5.37557850E-01  5.37557850E-01 -2.00445300E-02 -3.47317038E+00  3.09596877E+00
 -4.26584043E+00  3.01761288E+00  5.87851398E+00 -1.01662212E+01  7.27434216E+00
 -4.26584043E+00  3.01761288E+00 -3.47317038E+00  3.09596877E+00  1.08841798E+01
 -1.03484442E+01 -7.57501011E+00  4.95464337E+00 -4.53735270E-01  1.53613989E+00
  3.85766091E+00  6.41424960E-01  6.41424960E-01 -1.19283176E+01  7.79003325E+00
  1.08841798E+01 -1.03484442E+01 -4.64304204E+00  3.49868160E-01  7.12491930E-01
  7.12491930E-01  3.44401470E-01  3.88134990E-01  3.88134990E-01 -1.27556100E-01
  4.61024190E-01  4.61024190E-01 -4.84713180E-01  1.16804943E+00  1.07438681E+01
 -1.04741780E+01 -7.57501011E+00  4.95464337E+00 -7.08847470E-01  1.83498561E+00
  6.65842842E+00  7.83558900E-02 -4.44259674E+00  1.16987166E+00  1.16987166E+00
  1.16987166E+00 -1.23200970E+01  7.47478746E+00  1.08841798E+01 -1.03484442E+01
 -9.40817349E+00  5.35006728E+00 -5.07859145E+00  3.61809233E+00  4.62487441E+00
  7.87750029E-01  7.87750029E-01 -7.84183925E+00  2.52759337E+01 -1.79116645E+01
 -1.79116645E+01 -1.79116645E+01  9.77808618E+00 -1.06035564E+01 -4.64304204E+00
  3.49868160E-01  7.12491930E-01  7.12491930E-01  3.44401470E-01  3.88134990E-01
  3.88134990E-01 -1.27556100E-01  4.61024190E-01  4.61024190E-01 -4.84713180E-01
  1.16804943E+00  1.07438681E+01 -1.04741780E+01 -7.57501011E+00  4.95464337E+00
 -4.53735270E-01  1.53613989E+00  3.85766091E+00  6.41424960E-01  6.41424960E-01
 -1.19283176E+01  7.79003325E+00  1.08841798E+01 -1.03484442E+01 -7.57501011E+00
  4.95464337E+00 -2.55112200E-02  1.59627348E+00 -2.76978960E-01  5.37557850E-01
  5.37557850E-01 -2.00445300E-02 -3.47317038E+00  3.09596877E+00 -4.26584043E+00
  3.01761288E+00  5.87851398E+00 -1.01662212E+01  7.27434216E+00 -4.26584043E+00
  3.01761288E+00 -3.47317038E+00  3.09596877E+00  1.08841798E+01 -1.03484442E+01
 -7.57501011E+00  4.95464337E+00 -4.53735270E-01  1.53613989E+00  3.85766091E+00
  6.41424960E-01  6.41424960E-01 -1.19283176E+01  7.79003325E+00  1.08841798E+01
 -1.03484442E+01 -4.64304204E+00  3.49868160E-01  7.12491930E-01  7.12491930E-01
  3.44401470E-01  3.88134990E-01  3.88134990E-01 -1.27556100E-01  4.61024190E-01
  4.61024190E-01 -4.84713180E-01  1.16804943E+00  1.07438681E+01 -1.04741780E+01
 -7.57501011E+00  4.95464337E+00 -7.08847470E-01  1.83498561E+00  6.65842842E+00
  7.83558900E-02 -4.44259674E+00  1.16987166E+00  1.16987166E+00  1.16987166E+00
 -1.23200970E+01  7.47478746E+00  1.08841798E+01 -1.03484442E+01 -9.40817349E+00
  5.35006728E+00 -5.07859145E+00  3.61809233E+00  4.62487441E+00  7.87750029E-01
  7.87750029E-01 -7.84183925E+00  2.52759337E+01 -1.79116645E+01 -1.79116645E+01
 -1.79116645E+01  9.77808618E+00 -1.06035564E+01 -4.64304204E+00  3.49868160E-01
  7.12491930E-01  7.12491930E-01  3.44401470E-01  3.88134990E-01  3.88134990E-01
 -1.27556100E-01  4.61024190E-01  4.61024190E-01 -4.84713180E-01  1.16804943E+00
  1.07438681E+01 -1.04741780E+01 -7.57501011E+00  4.95464337E+00 -4.53735270E-01
  1.53613989E+00  3.85766091E+00  6.41424960E-01  6.41424960E-01 -1.19283176E+01
  7.79003325E+00  1.08841798E+01 -1.03484442E+01 -8.43692490E+00  4.21846245E+00
  4.21846245E+00
%FLAG ATOMIC_NUMBER                                                             
%FORMAT(10I8)                                                                   
       1       6       1       1       6       8       7       1       6       1
       6       1       1       6       6       1       6       1       6       8
       1       6       1       6       1       6       8       7       1       6
       1       6       1       1       8       1       6       8       7       6
       1       1       6       1       1       6       1       1       6       1
       6       8       7       1       6       1       6       1       6       1
       1       1       8       1       6       8       7       1       6       1
       6       1       1       8      15       8       8       8       6       8
       7       6       1       1       6       1       1       6       1       1
       6       1       6       8       7       1       6       1       6       1
       1       8       1       6       8       7       1       6       1       6
       1       1       6       6       1       6       1       6       8       1
       6       1       6       1       6       8       7       1       6       1
       6       1       1       8       1       6       8       7       6       1
       1       6       1       1       6       1       1       6       1       6
       8       7       1       6       1       6       1       6       1       1
       1       8       1       6       8       7       1       6       1       6
       1       1       8      15       8       8       8       6       8       7
       6       1       1       6       1       1       6       1       1       6
       1       6       8       7       1       6       1       6       1       1
       8       1       6       8       7       1       6       1       6       1
       1       6       6       1       6       1       6       8       1       6
       1       6       1       6       8       7       1       6       1       6
       1       1       8       1       6       8       7       6       1       1
       6       1       1       6       1       1       6       1       6       8
       7       1       6       1       6       1       6       1       1       1
       8       1       6       8       7       1       6       1       6       1
       1       8      15       8       8       8       6       8       7       6
       1       1       6       1       1       6       1       1       6       1
       6       8       7       1       6       1       6       1       1       8
       1       6       8       7       1       1
%FLAG MASS                                                                      
%FORMAT(5E16.8)                                                                 
  1.00800000E+00  1.20100000E+01  1.00800000E+00  1.00800000E+00  1.20100000E+01
  1.60000000E+01  1.40100000E+01  1.00800000E+00  1.20100000E+01  1.00800000E+00
  1.20100000E+01  1.00800000E+00  1.00800000E+00  1.20100000E+01  1.20100000E+01
  1.00800000E+00  1.20100000E+01  1.00800000E+00  1.20100000E+01  1.60000000E+01
  1.00800000E+00  1.20100000E+01  1.00800000E+00  1.20100000E+01  1.00800000E+00
  1.20100000E+01  1.60000000E+01  1.40100000E+01  1.00800000E+00  1.20100000E+01
  1.00800000E+00  1.20100000E+01  1.00800000E+00  1.00800000E+00  1.60000000E+01
  1.00800000E+00  1.20100000E+01  1.60000000E+01  1.40100000E+01  1.20100000E+01
  1.00800000E+00  1.00800000E+00  1.20100000E+01  1.00800000E+00  1.00800000E+00
  1.20100000E+01  1.00800000E+00  1.00800000E+00  1.20100000E+01  1.00800000E+00
  1.20100000E+01  1.60000000E+01  1.40100000E+01  1.00800000E+00  1.20100000E+01
  1.00800000E+00  1.20100000E+01  1.00800000E+00  1.20100000E+01  1.00800000E+00
  1.00800000E+00  1.00800000E+00  1.60000000E+01  1.00800000E+00  1.20100000E+01
  1.60000000E+01  1.40100000E+01  1.00800000E+00  1.20100000E+01  1.00800000E+00
  1.20100000E+01  1.00800000E+00  1.00800000E+00  1.60000000E+01  3.09700000E+01
  1.60000000E+01  1.60000000E+01  1.60000000E+01  1.20100000E+01  1.60000000E+01
  1.40100000E+01  1.20100000E+01  1.00800000E+00  1.00800000E+00  1.20100000E+01
  1.00800000E+00  1.00800000E+00  1.20100000E+01  1.00800000E+00  1.00800000E+00
  1.20100000E+01  1.00800000E+00  1.20100000E+01  1.60000000E+01  1.40100000E+01
  1.00800000E+00  1.20100000E+01  1.00800000E+00  1.20100000E+01  1.00800000E+00
  1.00800000E+00  1.60000000E+01  1.00800000E+00  1.20100000E+01  1.60000000E+01
  1.40100000E+01  1.00800000E+00  1.20100000E+01  1.00800000E+00  1.20100000E+01
  1.00800000E+00  1.00800000E+00  1.20100000E+01  1.20100000E+01  1.00800000E+00
  1.20100000E+01  1.00800000E+00  1.20100000E+01  1.60000000E+01  1.00800000E+00
  1.20100000E+01  1.00800000E+00  1.20100000E+01  1.00800000E+00  1.20100000E+01
  1.60000000E+01  1.40100000E+01  1.00800000E+00  1.20100000E+01  1.00800000E+00
  1.20100000E+01  1.00800000E+00  1.00800000E+00  1.60000000E+01  1.00800000E+00
  1.20100000E+01  1.60000000E+01  1.40100000E+01  1.20100000E+01  1.00800000E+00
  1.00800000E+00  1.20100000E+01  1.00800000E+00  1.00800000E+00  1.20100000E+01
  1.00800000E+00  1.00800000E+00  1.20100000E+01  1.00800000E+00  1.20100000E+01
  1.60000000E+01  1.40100000E+01  1.00800000E+00  1.20100000E+01  1.00800000E+00
  1.20100000E+01  1.00800000E+00  1.20100000E+01  1.00800000E+00  1.00800000E+00
  1.00800000E+00  1.60000000E+01  1.00800000E+00  1.20100000E+01  1.60000000E+01
  1.40100000E+01  1.00800000E+00  1.20100000E+01  1.00800000E+00  1.20100000E+01
  1.00800000E+00  1.00800000E+00  1.60000000E+01  3.09700000E+01  1.60000000E+01
  1.60000000E+01  1.60000000E+01  1.20100000E+01  1.60000000E+01  1.40100000E+01
  1.20100000E+01  1.00800000E+00  1.00800000E+00  1.20100000E+01  1.00800000E+00
  1.00800000E+00  1.20100000E+01  1.00800000E+00  1.00800000E+00  1.20100000E+01
  1.00800000E+00  1.20100000E+01  1.60000000E+01  1.40100000E+01  1.00800000E+00
  1.20100000E+01  1.00800000E+00  1.20100000E+01  1.00800000E+00  1.00800000E+00
  1.60000000E+01  1.00800000E+00  1.20100000E+01  1.60000000E+01  1.40100000E+01
  1.00800000E+00  1.20100000E+01  1.00800000E+00  1.20100000E+01  1.00800000E+00
  1.00800000E+00  1.20100000E+01  1.20100000E+01  1.00800000E+00  1.20100000E+01
  1.00800000E+00  1.20100000E+01  1.60000000E+01  1.00800000E+00  1.20100000E+01
  1.00800000E+00  1.20100000E+01  1.00800000E+00  1.20100000E+01  1.60000000E+01
  1.40100000E+01  1.00800000E+00  1.20100000E+01  1.00800000E+00  1.20100000E+01
  1.00800000E+00  1.00800000E+00  1.60000000E+01  1.00800000E+00  1.20100000E+01
  1.60000000E+01  1.40100000E+01  1.20100000E+01  1.00800000E+00  1.00800000E+00
  1.20100000E+01  1.00800000E+00  1.00800000E+00  1.20100000E+01  1.00800000E+00
  1.00800000E+00  1.20100000E+01  1.00800000E+00  1.20100000E+01  1.60000000E+01
  1.40100000E+01  1.00800000E+00  1.20100000E+01  1.00800000E+00  1.20100000E+01
  1.00800000E+00  1.20100000E+01  1.00800000E+00  1.00800000E+00  1.00800000E+00
  1.60000000E+01  1.00800000E+00  1.20100000E+01  1.60000000E+01  1.40100000E+01
  1.00800000E+00  1.20100000E+01  1.00800000E+00  1.20100000E+01  1.00800000E+00
  1.00800000E+00  1.60000000E+01  3.09700000E+01  1.60000000E+01  1.60000000E+01
  1.60000000E+01  1.20100000E+01  1.60000000E+01  1.40100000E+01  1.20100000E+01
  1.00800000E+00  1.00800000E+00  1.20100000E+01  1.00800000E+00  1.00800000E+00
  1.20100000E+01  1.00800000E+00  1.00800000E+00  1.20100000E+01  1.00800000E+00
  1.20100000E+01  1.60000000E+01  1.40100000E+01  1.00800000E+00  1.20100000E+01
  1.00800000E+00  1.20100000E+01  1.00800000E+00  1.00800000E+00  1.60000000E+01
  1.00800000E+00  1.20100000E+01  1.60000000E+01  1.40100000E+01  1.00800000E+00
  1.00800000E+00
%FLAG ATOM_TYPE_INDEX                                                           
%FORMAT(10I8)                                                                   
       1       2       1       1       3       4       5       6       2       7
       2       1       1       3       3       8       3       8       3       9
      10       3       8       3       8       3       4       5       6       2
       7       2       7       7       9      10       3       4       5       2
       7       7       2       1       1       2       1       1       2       7
       3       4       5       6       2       7       2       7       2       1
       1       1       9      10       3       4       5       6       2       7
       2       7       7      11      12      13      13      13       3       4
       5       2       7       7       2       1       1       2       1       1
       2       7       3       4       5       6       2       7       2       7
       7       9      10       3       4       5       6       2       7       2
       1       1       3       3       8       3       8       3       9      10
       3       8       3       8       3       4       5       6       2       7
       2       7       7       9      10       3       4       5       2       7
       7       2       1       1       2       1       1       2       7       3
       4       5       6       2       7       2       7       2       1       1
       1       9      10       3       4       5       6       2       7       2
       7       7      11      12      13      13      13       3       4       5
       2       7       7       2       1       1       2       1       1       2
       7       3       4       5       6       2       7       2       7       7
       9      10       3       4       5       6       2       7       2       1
       1       3       3       8       3       8       3       9      10       3
       8       3       8       3       4       5       6       2       7       2
       7       7       9      10       3       4       5       2       7       7
       2       1       1       2       1       1       2       7       3       4
       5       6       2       7       2       7       2       1       1       1
       9      10       3       4       5       6       2       7       2       7
       7      11      12      13      13      13       3       4       5       2
       7       7       2       1       1       2       1       1       2       7
       3       4       5       6       2       7       2       7       7       9
      10       3       4       5       6       6
%FLAG NUMBER_EXCLUDED_ATOMS                                                     
%FORMAT(10I8)                                                                   
       6       7       4       3       7       3      10       4      12       7
      12       5       4      10       8       4       7       3       6       4
       1       3       2       1       1       7       3      10       4      11
       7       7       4       3       2       1      10       3      14      11
       6       5       8       5       4       7       4       3       6       3
       7       3      10       4      14       7      10       7       6       3
       2       1       2       1       7       3      10       4      11       7
      10       4       3       5       3       2       1       1      10       3
      14      11       6       5       8       5       4       7       4       3
       6       3       7       3      10       4      11       7       7       4
       3       2       1       7       3      10       4      12       7      12
       5       4      10       8       4       7       3       6       4       1
       3       2       1       1       7       3      10       4      11       7
       7       4       3       2       1      10       3      14      11       6
       5       8       5       4       7       4       3       6       3       7
       3      10       4      14       7      10       7       6       3       2
       1       2       1       7       3      10       4      11       7      10
       4       3       5       3       2       1       1      10       3      14
      11       6       5       8       5       4       7       4       3       6
       3       7       3      10       4      11       7       7       4       3
       2       1       7       3      10       4      12       7      12       5
       4      10       8       4       7       3       6       4       1       3
       2       1       1       7       3      10       4      11       7       7
       4       3       2       1      10       3      14      11       6       5
       8       5       4       7       4       3       6       3       7       3
      10       4      14       7      10       7       6       3       2       1
       2       1       7       3      10       4      11       7      10       4
       3       5       3       2       1       1      10       3      14      11
       6       5       8       5       4       7       4       3       6       3
       7       3      10       4      11       7       7       4       3       2
       1       4       3       2       1       1
%FLAG NONBONDED_PARM_INDEX                                                      
%FORMAT(10I8)                                                                   
       1       2       4       7      11      16      22      29      37      46
      56      67      79       2       3       5       8      12      17      23
      30      38      47      57      68      80       4       5       6       9
      13      18      24      31      39      48      58      69      81       7
       8       9      10      14      19      25      32      40      49      59
      70      82      11      12      13      14      15      20      26      33
      41      50      60      71      83      16      17      18      19      20
      21      27      34      42      51      61      72      84      22      23
      24      25      26      27      28      35      43      52      62      73
      85      29      30      31      32      33      34      35      36      44
      53      63      74      86      37      38      39      40      41      42
      43      44      45      54      64      75      87      46      47      48
      49      50      51      52      53      54      55      65      76      88
      56      57      58      59      60      61      62      63      64      65
      66      77      89      67      68      69      70      71      72      73
      74      75      76      77      78      90      79      80      81      82
      83      84      85      86      87      88      89      90      91
%FLAG RESIDUE_LABEL                                                             
%FORMAT(20a4)                                                                   
ACE TYR SER PRO THR SEP PRO SER TYR SER PRO THR SEP PRO SER TYR SER PRO THR SEP 
PRO SER NHE 
%FLAG RESIDUE_POINTER                                                           
%FORMAT(10I8)                                                                   
       1       7      28      39      53      67      81      95     106     127
     138     152     166     180     194     205     226     237     251     265
     279     293     304
%FLAG BOND_FORCE_CONSTANT                                                       
%FORMAT(5E16.8)                                                                 
  5.70000000E+02  4.90000000E+02  3.40000000E+02  3.17000000E+02  3.67000000E+02
  4.69000000E+02  5.53000000E+02  4.50000000E+02  4.69000000E+02  3.17000000E+02
  3.40000000E+02  3.10000000E+02  4.34000000E+02  3.37000000E+02  3.20000000E+02
  5.25000000E+02  2.30000000E+02  3.20000000E+02
%FLAG BOND_EQUIL_VALUE                                                          
%FORMAT(5E16.8)                                                                 
  1.22900000E+00  1.33500000E+00  1.09000000E+00  1.52200000E+00  1.08000000E+00
  1.40000000E+00  9.60000000E-01  1.36400000E+00  1.40900000E+00  1.51000000E+00
  1.09000000E+00  1.52600000E+00  1.01000000E+00  1.44900000E+00  1.41000000E+00
  1.48000000E+00  1.61000000E+00  1.41000000E+00
%FLAG ANGLE_FORCE_CONSTANT                                                      
%FORMAT(5E16.8)                                                                 
  8.00000000E+01  5.00000000E+01  5.00000000E+01  5.00000000E+01  3.50000000E+01
  8.00000000E+01  7.00000000E+01  5.00000000E+01  7.00000000E+01  5.00000000E+01
  5.00000000E+01  6.30000000E+01  6.30000000E+01  6.30000000E+01  5.00000000E+01
  6.30000000E+01  7.00000000E+01  5.00000000E+01  5.00000000E+01  5.00000000E+01
  6.30000000E+01  5.00000000E+01  5.00000000E+01  8.00000000E+01  6.30000000E+01
  5.00000000E+01  3.50000000E+01  5.50000000E+01  5.00000000E+01  4.00000000E+01
  5.00000000E+01  1.40000000E+02  1.00000000E+02  5.00000000E+01  1.00000000E+02
  5.00000000E+01  3.50000000E+01
%FLAG ANGLE_EQUIL_VALUE                                                         
%FORMAT(5E16.8)                                                                 
  2.14501057E+00  2.09439600E+00  2.12755727E+00  1.91113635E+00  1.91113635E+00
  2.10137732E+00  2.03505478E+00  2.09439600E+00  2.09439600E+00  1.97222290E+00
  2.09439600E+00  2.09439600E+00  2.09439600E+00  2.09439600E+00  1.91113635E+00
  1.93906163E+00  2.09439600E+00  1.91113635E+00  1.91113635E+00  1.91113635E+00
  1.98967620E+00  2.06018753E+00  1.91113635E+00  1.91462701E+00  1.92160833E+00
  1.91113635E+00  1.91113635E+00  1.89368305E+00  1.91113635E+00  1.91113635E+00
  2.05948940E+00  2.09265067E+00  1.88897066E+00  1.91113635E+00  2.10312265E+00
  1.91113635E+00  2.09439600E+00
%FLAG DIHEDRAL_FORCE_CONSTANT                                                   
%FORMAT(5E16.8)                                                                 
  1.00000000E+00  2.90000000E+00  1.87500000E+00  0.00000000E+00  2.00000000E+00
  2.00000000E+00  4.00000000E-01  0.00000000E+00  0.00000000E+00  2.70000000E-01
  4.20000000E-01  8.00000000E-01  8.00000000E-02  3.62500000E+00  2.30000000E+00
  1.55555556E-01  2.00000000E-01  2.00000000E-01  4.50000000E-01  1.58000000E+00
  5.50000000E-01  1.66666667E-01  2.50000000E-01  0.00000000E+00  1.60000000E-01
  1.50000000E-01  2.00000000E-01  2.50000000E-01  1.80000000E-01  3.83333333E-01
  2.50000000E-01  1.05000000E+01  1.10000000E+00  1.00000000E+00
%FLAG DIHEDRAL_PERIODICITY                                                      
%FORMAT(5E16.8)                                                                 
  1.00000000E+00  2.00000000E+00  2.00000000E+00  2.00000000E+00  1.00000000E+00
  2.00000000E+00  3.00000000E+00  4.00000000E+00  1.00000000E+00  2.00000000E+00
  3.00000000E+00  1.00000000E+00  3.00000000E+00  2.00000000E+00  2.00000000E+00
  3.00000000E+00  1.00000000E+00  2.00000000E+00  1.00000000E+00  2.00000000E+00
  3.00000000E+00  3.00000000E+00  1.00000000E+00  3.00000000E+00  3.00000000E+00
  3.00000000E+00  1.00000000E+00  2.00000000E+00  3.00000000E+00  3.00000000E+00
  3.00000000E+00  2.00000000E+00  2.00000000E+00  2.00000000E+00
%FLAG DIHEDRAL_PHASE                                                            
%FORMAT(5E16.8)                                                                 
  0.00000000E+00  3.14159400E+00  3.14159400E+00  0.00000000E+00  0.00000000E+00
  0.00000000E+00  0.00000000E+00  0.00000000E+00  0.00000000E+00  0.00000000E+00
  0.00000000E+00  0.00000000E+00  3.14159400E+00  3.14159400E+00  3.14159400E+00
  0.00000000E+00  0.00000000E+00  0.00000000E+00  3.14159400E+00  3.14159400E+00
  3.14159400E+00  0.00000000E+00  0.00000000E+00  0.00000000E+00  0.00000000E+00
  0.00000000E+00  3.14159400E+00  3.14159400E+00  0.00000000E+00  0.00000000E+00
  0.00000000E+00  3.14159400E+00  3.14159400E+00  3.14159400E+00
%FLAG SCEE_SCALE_FACTOR                                                         
%FORMAT(5E16.8)                                                                 
  1.20000000E+00  1.20000000E+00  1.20000000E+00  1.20000000E+00  1.20000000E+00
  1.20000000E+00  1.20000000E+00  1.20000000E+00  1.20000000E+00  1.20000000E+00
  1.20000000E+00  1.20000000E+00  1.20000000E+00  1.20000000E+00  1.20000000E+00
  1.20000000E+00  1.20000000E+00  1.20000000E+00  1.20000000E+00  1.20000000E+00
  1.20000000E+00  1.20000000E+00  1.20000000E+00  1.20000000E+00  1.20000000E+00
  1.20000000E+00  1.20000000E+00  1.20000000E+00  1.20000000E+00  1.20000000E+00
  1.20000000E+00  0.00000000E+00  0.00000000E+00  0.00000000E+00
%FLAG SCNB_SCALE_FACTOR                                                         
%FORMAT(5E16.8)                                                                 
  2.00000000E+00  2.00000000E+00  2.00000000E+00  2.00000000E+00  2.00000000E+00
  2.00000000E+00  2.00000000E+00  2.00000000E+00  2.00000000E+00  2.00000000E+00
  2.00000000E+00  2.00000000E+00  2.00000000E+00  2.00000000E+00  2.00000000E+00
  2.00000000E+00  2.00000000E+00  2.00000000E+00  2.00000000E+00  2.00000000E+00
  2.00000000E+00  2.00000000E+00  2.00000000E+00  2.00000000E+00  2.00000000E+00
  2.00000000E+00  2.00000000E+00  2.00000000E+00  2.00000000E+00  2.00000000E+00
  2.00000000E+00  0.00000000E+00  0.00000000E+00  0.00000000E+00
%FLAG SOLTY                                                                     
%FORMAT(5E16.8)                                                                 
  0.00000000E+00  0.00000000E+00  0.00000000E+00  0.00000000E+00  0.00000000E+00
  0.00000000E+00  0.00000000E+00  0.00000000E+00  0.00000000E+00  0.00000000E+00
  0.00000000E+00  0.00000000E+00  0.00000000E+00  0.00000000E+00
%FLAG LENNARD_JONES_ACOEF                                                       
%FORMAT(5E16.8)                                                                 
  7.51607703E+03  9.71708117E+04  1.04308023E+06  8.61541883E+04  9.24822270E+05
  8.19971662E+05  5.44261042E+04  6.47841731E+05  5.74393458E+05  3.79876399E+05
  8.96776989E+04  9.95480466E+05  8.82619071E+05  6.06829342E+05  9.44293233E+05
  1.07193646E+02  2.56678134E+03  2.27577561E+03  1.02595236E+03  2.12601181E+03
  1.39982777E-01  4.98586848E+03  6.78771368E+04  6.01816484E+04  3.69471530E+04
  6.20665997E+04  5.94667300E+01  3.25969625E+03  6.55825601E+03  8.59947003E+04
  7.62451550E+04  4.77908183E+04  7.91627154E+04  8.90987508E+01  4.33325458E+03
  5.71629601E+03  6.82786631E+04  7.91544157E+05  7.01803794E+05  4.71003287E+05
  7.44975864E+05  1.40467023E+03  4.66922514E+04  6.00750218E+04  5.81803229E+05
  0.00000000E+00  0.00000000E+00  0.00000000E+00  0.00000000E+00  0.00000000E+00
  0.00000000E+00  0.00000000E+00  0.00000000E+00  0.00000000E+00  0.00000000E+00
  1.03059887E+05  1.12631192E+06  9.98617666E+05  6.92578687E+05  1.07142345E+06
  2.56980866E+03  7.16363022E+04  9.10831564E+04  8.48362891E+05  0.00000000E+00
  1.21407091E+06  2.54238516E+05  2.54188684E+06  2.25370349E+06  1.64263766E+06
  2.45746558E+06  8.41065839E+03  1.81087383E+05  2.26202022E+05  1.98683736E+06
  0.00000000E+00  2.76377243E+06  6.02589390E+06  1.05645189E+05  1.16507086E+06
  1.03298236E+06  7.12805727E+05  1.10647581E+06  2.55829707E+03  7.32501560E+04
  9.33041658E+04  8.74263903E+05  0.00000000E+00  1.25474774E+06  2.86887468E+06
  1.29621292E+06
%FLAG LENNARD_JONES_BCOEF                                                       
%FORMAT(5E16.8)                                                                 
  2.17257828E+01  1.26919150E+02  6.75612247E+02  1.12529845E+02  5.99015525E+02
  5.31102864E+02  1.11805549E+02  6.26720080E+02  5.55666448E+02  5.64885984E+02
  1.36131731E+02  7.36907417E+02  6.53361429E+02  6.77220874E+02  8.01323529E+02
  2.59456373E+00  2.06278363E+01  1.82891803E+01  1.53505284E+01  2.09604198E+01
  9.37598976E-02  1.76949863E+01  1.06076943E+02  9.40505980E+01  9.21192136E+01
  1.13252061E+02  1.93248820E+00  1.43076527E+01  2.00642027E+01  1.18043746E+02
  1.04660679E+02  1.03580945E+02  1.26451907E+02  2.33864085E+00  1.63092814E+01
  1.85196588E+01  1.25287818E+02  6.93079947E+02  6.14502845E+02  6.29300710E+02
  7.50714425E+02  1.79702257E+01  1.03606917E+02  1.16187983E+02  6.99746810E+02
  0.00000000E+00  0.00000000E+00  0.00000000E+00  0.00000000E+00  0.00000000E+00
  0.00000000E+00  0.00000000E+00  0.00000000E+00  0.00000000E+00  0.00000000E+00
  1.45935843E+02  7.83837246E+02  6.94970646E+02  7.23488465E+02  8.53561916E+02
  2.30445129E+01  1.21670059E+02  1.35638843E+02  8.01114314E+02  0.00000000E+00
  9.08607846E+02  2.38716853E+02  1.22636552E+03  1.08732781E+03  1.16041466E+03
  1.34630496E+03  4.34187588E+01  2.01468199E+02  2.22617115E+02  1.27682121E+03
  0.00000000E+00  1.42774571E+03  2.19561270E+03  1.55770278E+02  8.40456655E+02
  7.45170897E+02  7.73793778E+02  9.14466943E+02  2.42401453E+01  1.29707178E+02
  1.44729863E+02  8.57368507E+02  0.00000000E+00  9.73812310E+02  1.53355059E+03
  1.04346483E+03
%FLAG BONDS_INC_HYDROGEN                                                        
%FORMAT(10I8)                                                                   
       3       6       3       3       9       3       0       3       3      69
      72       5      63      66       5      57      60       7      48      51
       5      42      45       5      30      33       3      30      36       3
      24      27      11      18      21      13     102     105       7      93
      96      11      93      99      11      87      90      11      81      84
      13     144     147      11     135     138       3     135     141       3
     126     129       3     126     132       3     117     120      11     117
     123      11     186     189       7     174     177       3     174     180
       3     174     183       3     168     171      11     162     165      11
     156     159      13     210     216      11     210     213      11     204
     207      11     198     201      13     270     273      11     261     264
       3     261     267       3     252     255       3     252     258       3
     243     246      11     243     249      11     303     306       7     294
     297      11     294     300      11     288     291      11     282     285
      13     366     369       5     360     363       5     354     357       7
     345     348       5     339     342       5     327     330       3     327
     333       3     321     324      11     315     318      13     399     402
       7     390     393      11     390     396      11     384     387      11
     378     381      13     441     444      11     432     435       3     432
     438       3     423     426       3     423     429       3     414     417
      11     414     420      11     483     486       7     471     474       3
     471     477       3     471     480       3     465     468      11     459
     462      11     453     456      13     507     513      11     507     510
      11     501     504      11     495     498      13     567     570      11
     558     561       3     558     564       3     549     552       3     549
     555       3     540     543      11     540     546      11     600     603
       7     591     594      11     591     597      11     585     588      11
     579     582      13     663     666       5     657     660       5     651
     654       7     642     645       5     636     639       5     624     627
       3     624     630       3     618     621      11     612     615      13
     696     699       7     687     690      11     687     693      11     681
     684      11     675     678      13     738     741      11     729     732
       3     729     735       3     720     723       3     720     726       3
     711     714      11     711     717      11     780     783       7     768
     771       3     768     774       3     768     777       3     762     765
      11     756     759      11     750     753      13     804     810      11
     804     807      11     798     801      11     792     795      13     864
     867      11     855     858       3     855     861       3     846     849
       3     846     852       3     837     840      11     837     843      11
     897     900       7     888     891      11     888     894      11     882
     885      11     876     879      13     909     912      13     909     915
      13
%FLAG BONDS_WITHOUT_HYDROGEN                                                    
%FORMAT(10I8)                                                                   
      12      15       1      12      18       2       3      12       4      75
      78       1      75      81       2      63      69       6      54      57
       8      54      63       9      48      54       9      42      48       6
      39      42       6      39      69       6      30      39      10      24
      30      12      24      75       4      18      24      14     108     111
       1     108     114       2      93     102      15      87      93      12
      87     108       4      81      87      14     150     153       1     150
     156       2     144     150       4     135     144      12     126     135
      12     117     126      12     114     117      14     114     144      14
     192     195       1     192     198       2     168     174      12     168
     186      15     162     168      12     162     192       4     156     162
      14     234     237       1     234     240       2     222     225      16
     222     231      16     222     228      16     219     222      17     210
     219      18     204     234       4     204     210      12     198     204
      14     276     279       1     276     282       2     270     276       4
     261     270      12     252     261      12     243     252      12     240
     243      14     240     270      14     309     312       1     309     315
       2     294     303      15     288     294      12     288     309       4
     282     288      14     372     375       1     372     378       2     360
     366       6     351     354       8     351     360       9     345     351
       9     339     345       6     336     339       6     336     366       6
     327     336      10     321     327      12     321     372       4     315
     321      14     405     408       1     405     411       2     390     399
      15     384     390      12     384     405       4     378     384      14
     447     450       1     447     453       2     441     447       4     432
     441      12     423     432      12     414     423      12     411     414
      14     411     441      14     489     492       1     489     495       2
     465     471      12     465     483      15     459     465      12     459
     489       4     453     459      14     531     534       1     531     537
       2     519     522      16     519     528      16     519     525      16
     516     519      17     507     516      18     501     531       4     501
     507      12     495     501      14     573     576       1     573     579
       2     567     573       4     558     567      12     549     558      12
     540     549      12     537     540      14     537     567      14     606
     609       1     606     612       2     591     600      15     585     591
      12     585     606       4     579     585      14     669     672       1
     669     675       2     657     663       6     648     651       8     648
     657       9     642     648       9     636     642       6     633     636
       6     633     663       6     624     633      10     618     624      12
     618     669       4     612     618      14     702     705       1     702
     708       2     687     696      15     681     687      12     681     702
       4     675     681      14     744     747       1     744     750       2
     738     744       4     729     738      12     720     729      12     711
     720      12     708     711      14     708     738      14     786     789
       1     786     792       2     762     768      12     762     780      15
     756     762      12     756     786       4     750     756      14     828
     831       1     828     834       2     816     819      16     816     825
      16     816     822      16     813     816      17     804     813      18
     798     828       4     798     804      12     792     798      14     870
     873       1     870     876       2     864     870       4     855     864
      12     846     855      12     837     846      12     834     837      14
     834     864      14     903     906       1     903     909       2     888
     897      15     882     888      12     882     903       4     876     882
      14
%FLAG ANGLES_INC_HYDROGEN                                                       
%FORMAT(10I8)                                                                   
      12      18      21       2       9       3      12       4       6       3
       9       5       6       3      12       4       0       3       6       5
       0       3       9       5       0       3      12       4      75      81
      84       2      66      63      69       8      63      69      72       8
      54      57      60      10      54      63      66      11      51      48
      54      11      45      42      48       8      42      48      51       8
      39      42      45       8      39      69      72       8      36      30
      39      15      33      30      36       5      33      30      39      15
      27      24      30      18      27      24      75      19      24      30
      33      20      24      30      36      20      21      18      24      22
      18      24      27      23      99      93     102      26      96      93
      99      27      96      93     102      26      93     102     105      28
      90      87      93      18      90      87     108      19      87      93
      96      18      87      93      99      18      84      81      87      22
      81      87      90      23     150     156     159       2     147     144
     150      19     141     135     144      20     138     135     141       5
     138     135     144      20     135     144     147      18     132     126
     135      20     129     126     132       5     129     126     135      20
     126     135     138      20     126     135     141      20     123     117
     126      18     120     117     123      27     120     117     126      18
     117     126     129      20     117     126     132      20     114     117
     120      23     114     117     123      23     114     144     147      23
     192     198     201       2     180     174     183       5     177     174
     180       5     177     174     183       5     171     168     174      18
     171     168     186      26     168     174     177      20     168     174
     180      20     168     174     183      20     168     186     189      28
     165     162     168      18     165     162     192      19     162     168
     171      18     159     156     162      22     156     162     165      23
     216     210     219      34     213     210     216      27     213     210
     219      34     207     204     234      19     207     204     210      18
     204     210     216      18     204     210     213      18     201     198
     204      22     198     204     207      23     276     282     285       2
     273     270     276      19     267     261     270      20     264     261
     267       5     264     261     270      20     261     270     273      18
     258     252     261      20     255     252     258       5     255     252
     261      20     252     261     264      20     252     261     267      20
     249     243     252      18     246     243     249      27     246     243
     252      18     243     252     255      20     243     252     258      20
     240     243     246      23     240     243     249      23     240     270
     273      23     309     315     318       2     300     294     303      26
     297     294     300      27     297     294     303      26     294     303
     306      28     291     288     294      18     291     288     309      19
     288     294     297      18     288     294     300      18     285     282
     288      22     282     288     291      23     372     378     381       2
     363     360     366       8     360     366     369       8     351     354
     357      10     351     360     363      11     348     345     351      11
     342     339     345       8     339     345     348       8     336     339
     342       8     336     366     369       8     333     327     336      15
     330     327     333       5     330     327     336      15     324     321
     327      18     324     321     372      19     321     327     330      20
     321     327     333      20     318     315     321      22     315     321
     324      23     396     390     399      26     393     390     396      27
     393     390     399      26     390     399     402      28     387     384
     390      18     387     384     405      19     384     390     393      18
     384     390     396      18     381     378     384      22     378     384
     387      23     447     453     456       2     444     441     447      19
     438     432     441      20     435     432     438       5     435     432
     441      20     432     441     444      18     429     423     432      20
     426     423     429       5     426     423     432      20     423     432
     435      20     423     432     438      20     420     414     423      18
     417     414     420      27     417     414     423      18     414     423
     426      20     414     423     429      20     411     414     417      23
     411     414     420      23     411     441     444      23     489     495
     498       2     477     471     480       5     474     471     477       5
     474     471     480       5     468     465     471      18     468     465
     483      26     465     471     474      20     465     471     477      20
     465     471     480      20     465     483     486      28     462     459
     465      18     462     459     489      19     459     465     468      18
     456     453     459      22     453     459     462      23     513     507
     516      34     510     507     513      27     510     507     516      34
     504     501     531      19     504     501     507      18     501     507
     513      18     501     507     510      18     498     495     501      22
     495     501     504      23     573     579     582       2     570     567
     573      19     564     558     567      20     561     558     564       5
     561     558     567      20     558     567     570      18     555     549
     558      20     552     549     555       5     552     549     558      20
     549     558     561      20     549     558     564      20     546     540
     549      18     543     540     546      27     543     540     549      18
     540     549     552      20     540     549     555      20     537     540
     543      23     537     540     546      23     537     567     570      23
     606     612     615       2     597     591     600      26     594     591
     597      27     594     591     600      26     591     600     603      28
     588     585     591      18     588     585     606      19     585     591
     594      18     585     591     597      18     582     579     585      22
     579     585     588      23     669     675     678       2     660     657
     663       8     657     663     666       8     648     651     654      10
     648     657     660      11     645     642     648      11     639     636
     642       8     636     642     645       8     633     636     639       8
     633     663     666       8     630     624     633      15     627     624
     630       5     627     624     633      15     621     618     624      18
     621     618     669      19     618     624     627      20     618     624
     630      20     615     612     618      22     612     618     621      23
     693     687     696      26     690     687     693      27     690     687
     696      26     687     696     699      28     684     681     687      18
     684     681     702      19     681     687     690      18     681     687
     693      18     678     675     681      22     675     681     684      23
     744     750     753       2     741     738     744      19     735     729
     738      20     732     729     735       5     732     729     738      20
     729     738     741      18     726     720     729      20     723     720
     726       5     723     720     729      20     720     729     732      20
     720     729     735      20     717     711     720      18     714     711
     717      27     714     711     720      18     711     720     723      20
     711     720     726      20     708     711     714      23     708     711
     717      23     708     738     741      23     786     792     795       2
     774     768     777       5     771     768     774       5     771     768
     777       5     765     762     768      18     765     762     780      26
     762     768     771      20     762     768     774      20     762     768
     777      20     762     780     783      28     759     756     762      18
     759     756     786      19     756     762     765      18     753     750
     756      22     750     756     759      23     810     804     813      34
     807     804     810      27     807     804     813      34     801     798
     828      19     801     798     804      18     798     804     810      18
     798     804     807      18     795     792     798      22     792     798
     801      23     870     876     879       2     867     864     870      19
     861     855     864      20     858     855     861       5     858     855
     864      20     855     864     867      18     852     846     855      20
     849     846     852       5     849     846     855      20     846     855
     858      20     846     855     861      20     843     837     846      18
     840     837     843      27     840     837     846      18     837     846
     849      20     837     846     852      20     834     837     840      23
     834     837     843      23     834     864     867      23     903     909
     912       2     903     909     915       2     894     888     897      26
     891     888     894      27     891     888     897      26     888     897
     900      28     885     882     888      18     885     882     903      19
     882     888     891      18     882     888     894      18     879     876
     882      22     876     882     885      23     912     909     915      37
%FLAG ANGLES_WITHOUT_HYDROGEN                                                   
%FORMAT(10I8)                                                                   
      15      12      18       1      12      18      24       3       3      12
      15       6       3      12      18       7      78      75      81       1
      75      81      87       3      57      54      63       9      54      63
      69      12      48      54      57       9      48      54      63      13
      42      39      69      14      42      48      54      12      39      42
      48      14      39      69      63      14      30      24      75      16
      30      39      42      17      30      39      69      17      24      30
      39      21      24      75      78       6      24      75      81       7
      18      24      30      24      18      24      75      25     111     108
     114       1     108     114     117       3     108     114     144       3
      93      87     108      16      87      93     102      29      87     108
     111       6      87     108     114       7      81      87      93      24
      81      87     108      25     153     150     156       1     150     156
     162       3     144     150     153       6     144     150     156       7
     135     144     150      16     126     135     144      30     117     114
     144      31     117     126     135      30     114     117     126      24
     114     144     135      24     114     144     150      25     195     192
     198       1     192     198     204       3     174     168     186      29
     168     162     192      16     162     168     174      30     162     168
     186      29     162     192     195       6     162     192     198       7
     156     162     168      24     156     162     192      25     237     234
     240       1     234     240     243       3     234     240     270       3
     228     222     231      32     225     222     231      32     225     222
     228      32     219     222     225      33     219     222     231      33
     219     222     228      33     210     204     234      16     210     219
     222      35     204     234     237       6     204     234     240       7
     204     210     219      36     198     204     234      25     198     204
     210      24     279     276     282       1     276     282     288       3
     270     276     279       6     270     276     282       7     261     270
     276      16     252     261     270      30     243     240     270      31
     243     252     261      30     240     243     252      24     240     270
     261      24     240     270     276      25     312     309     315       1
     309     315     321       3     294     288     309      16     288     294
     303      29     288     309     312       6     288     309     315       7
     282     288     294      24     282     288     309      25     375     372
     378       1     372     378     384       3     354     351     360       9
     351     360     366      12     345     351     354       9     345     351
     360      13     339     336     366      14     339     345     351      12
     336     339     345      14     336     366     360      14     327     321
     372      16     327     336     339      17     327     336     366      17
     321     327     336      21     321     372     375       6     321     372
     378       7     315     321     327      24     315     321     372      25
     408     405     411       1     405     411     414       3     405     411
     441       3     390     384     405      16     384     390     399      29
     384     405     408       6     384     405     411       7     378     384
     390      24     378     384     405      25     450     447     453       1
     447     453     459       3     441     447     450       6     441     447
     453       7     432     441     447      16     423     432     441      30
     414     411     441      31     414     423     432      30     411     414
     423      24     411     441     432      24     411     441     447      25
     492     489     495       1     489     495     501       3     471     465
     483      29     465     459     489      16     459     465     471      30
     459     465     483      29     459     489     492       6     459     489
     495       7     453     459     465      24     453     459     489      25
     534     531     537       1     531     537     540       3     531     537
     567       3     525     519     528      32     522     519     528      32
     522     519     525      32     516     519     522      33     516     519
     528      33     516     519     525      33     507     501     531      16
     507     516     519      35     501     531     534       6     501     531
     537       7     501     507     516      36     495     501     531      25
     495     501     507      24     576     573     579       1     573     579
     585       3     567     573     576       6     567     573     579       7
     558     567     573      16     549     558     567      30     540     537
     567      31     540     549     558      30     537     540     549      24
     537     567     558      24     537     567     573      25     609     606
     612       1     606     612     618       3     591     585     606      16
     585     591     600      29     585     606     609       6     585     606
     612       7     579     585     591      24     579     585     606      25
     672     669     675       1     669     675     681       3     651     648
     657       9     648     657     663      12     642     648     651       9
     642     648     657      13     636     633     663      14     636     642
     648      12     633     636     642      14     633     663     657      14
     624     618     669      16     624     633     636      17     624     633
     663      17     618     624     633      21     618     669     672       6
     618     669     675       7     612     618     624      24     612     618
     669      25     705     702     708       1     702     708     711       3
     702     708     738       3     687     681     702      16     681     687
     696      29     681     702     705       6     681     702     708       7
     675     681     687      24     675     681     702      25     747     744
     750       1     744     750     756       3     738     744     747       6
     738     744     750       7     729     738     744      16     720     729
     738      30     711     708     738      31     711     720     729      30
     708     711     720      24     708     738     729      24     708     738
     744      25     789     786     792       1     786     792     798       3
     768     762     780      29     762     756     786      16     756     762
     768      30     756     762     780      29     756     786     789       6
     756     786     792       7     750     756     762      24     750     756
     786      25     831     828     834       1     828     834     837       3
     828     834     864       3     822     816     825      32     819     816
     825      32     819     816     822      32     813     816     819      33
     813     816     825      33     813     816     822      33     804     798
     828      16     804     813     816      35     798     828     831       6
     798     828     834       7     798     804     813      36     792     798
     828      25     792     798     804      24     873     870     876       1
     870     876     882       3     864     870     873       6     864     870
     876       7     855     864     870      16     846     855     864      30
     837     834     864      31     837     846     855      30     834     837
     846      24     834     864     855      24     834     864     870      25
     906     903     909       1     888     882     903      16     882     888
     897      29     882     903     906       6     882     903     909       7
     876     882     888      24     876     882     903      25
%FLAG DIHEDRALS_INC_HYDROGEN                                                    
%FORMAT(10I8)                                                                   
      15      12      18      21       1      15      12     -18      21       2
      12      18      24      27       4       9       3      12      15      12
       9       3     -12      15       4       9       3     -12      15      13
       9       3      12      18       4       6       3      12      15      12
       6       3     -12      15       4       6       3     -12      15      13
       6       3      12      18       4       3      12      18      21       3
       0       3      12      15      12       0       3     -12      15       4
       0       3     -12      15      13       0       3      12      18       4
      78      75      81      84       1      78      75     -81      84       2
      75      81      87      90       4      66      63      69      72      14
      60      57      54      63      15      57      54      63      66      14
      54      63      69      72      14      51      48      54      57      14
      51      48      54      63      14      48      54      57      60      15
      48      54      63      66      14      45      42      39      69      14
      45      42      48      51      14      45      42      48      54      14
      42      39      69      72      14      39      42      48      51      14
      39      69      63      66      14      36      30      24      75      16
      36      30      39      42       4      36      30      39      69       4
      33      30      24      75      16      33      30      39      42       4
      33      30      39      69       4      30      39      42      45      14
      30      39      69      72      14      27      24      30      33      16
      27      24      30      36      16      27      24      30      39      16
      27      24      75      78      12      27      24     -75      78       4
      27      24     -75      78      13      27      24      75      81       4
      24      75      81      84       3      21      18      24      27       4
      21      18      24      30       4      21      18      24      75       4
      18      24      30      33      16      18      24      30      36      16
     108     114     117     120       4     108     114     117     123       4
     108     114     144     147       4      99      93      87     108      16
      99      93     102     105      22      96      93      87     108      16
      96      93     102     105      22      90      87      93      96      16
      90      87      93      99      16      90      87      93     102      23
      90      87     -93     102      24      90      87     108     111      12
      90      87    -108     111       4      90      87    -108     111      13
      90      87     108     114       4      87      93     102     105      23
      87      93    -102     105      25      84      81      87      90       4
      84      81      87      93       4      84      81      87     108       4
      81      87      93      96      16      81      87      93      99      16
     153     150     156     159       1     153     150    -156     159       2
     150     156     162     165       4     147     144     150     153      12
     147     144    -150     153       4     147     144    -150     153      13
     147     144     150     156       4     144     150     156     159       3
     141     135     144     147      16     141     135     144     150      16
     138     135     144     147      16     138     135     144     150      16
     132     126     135     138      26     132     126     135     141      26
     132     126     135     144      25     129     126     135     138      26
     129     126     135     141      26     129     126     135     144      25
     126     135     144     147      16     123     117     114     144       4
     123     117     126     129      16     123     117     126     132      16
     123     117     126     135      16     120     117     114     144       4
     120     117     126     129      16     120     117     126     132      16
     120     117     126     135      16     117     114     144     147       4
     117     126     135     138      25     117     126     135     141      25
     114     117     126     129      16     114     117     126     132      16
     114     144     135     138      16     114     144     135     141      16
     195     192     198     201       1     195     192    -198     201       2
     192     198     204     207       4     183     174     168     186      23
     183     174    -168     186      24     180     174     168     186      23
     180     174    -168     186      24     177     174     168     186      23
     177     174    -168     186      24     174     168     186     189      23
     174     168    -186     189      25     171     168     162     192      16
     171     168     174     177      16     171     168     174     180      16
     171     168     174     183      16     171     168     186     189      22
     165     162     168     171      16     165     162     168     174      16
     165     162     168     186      23     165     162    -168     186      24
     165     162     192     195      12     165     162    -192     195       4
     165     162    -192     195      13     165     162     192     198       4
     162     168     174     177      25     162     168     174     180      25
     162     168     174     183      25     162     168     186     189      23
     162     168    -186     189      25     162     192     198     201       3
     159     156     162     165       4     159     156     162     168       4
     159     156     162     192       4     156     162     168     171      16
     234     240     243     246       4     234     240     243     249       4
     234     240     270     273       4     216     210     204     234      16
     216     210     219     222      30     213     210     204     234      16
     213     210     219     222      30     207     204     234     237      12
     207     204    -234     237       4     207     204    -234     237      13
     207     204     234     240       4     207     204     210     216      16
     207     204     210     213      16     207     204     210     219      16
     201     198     204     207       4     201     198     204     234       4
     201     198     204     210       4     198     204     210     216      16
     198     204     210     213      16     279     276     282     285       1
     279     276    -282     285       2     276     282     288     291       4
     273     270     276     279      12     273     270    -276     279       4
     273     270    -276     279      13     273     270     276     282       4
     270     276     282     285       3     267     261     270     273      16
     267     261     270     276      16     264     261     270     273      16
     264     261     270     276      16     258     252     261     264      26
     258     252     261     267      26     258     252     261     270      25
     255     252     261     264      26     255     252     261     267      26
     255     252     261     270      25     252     261     270     273      16
     249     243     240     270       4     249     243     252     255      16
     249     243     252     258      16     249     243     252     261      16
     246     243     240     270       4     246     243     252     255      16
     246     243     252     258      16     246     243     252     261      16
     243     240     270     273       4     243     252     261     264      25
     243     252     261     267      25     240     243     252     255      16
     240     243     252     258      16     240     270     261     264      16
     240     270     261     267      16     312     309     315     318       1
     312     309    -315     318       2     309     315     321     324       4
     300     294     288     309      16     300     294     303     306      22
     297     294     288     309      16     297     294     303     306      22
     291     288     294     297      16     291     288     294     300      16
     291     288     294     303      23     291     288    -294     303      24
     291     288     309     312      12     291     288    -309     312       4
     291     288    -309     312      13     291     288     309     315       4
     288     294     303     306      23     288     294    -303     306      25
     288     309     315     318       3     285     282     288     291       4
     285     282     288     294       4     285     282     288     309       4
     282     288     294     297      16     282     288     294     300      16
     375     372     378     381       1     375     372    -378     381       2
     372     378     384     387       4     363     360     366     369      14
     357     354     351     360      15     354     351     360     363      14
     351     360     366     369      14     348     345     351     354      14
     348     345     351     360      14     345     351     354     357      15
     345     351     360     363      14     342     339     336     366      14
     342     339     345     348      14     342     339     345     351      14
     339     336     366     369      14     336     339     345     348      14
     336     366     360     363      14     333     327     321     372      16
     333     327     336     339       4     333     327     336     366       4
     330     327     321     372      16     330     327     336     339       4
     330     327     336     366       4     327     336     339     342      14
     327     336     366     369      14     324     321     327     330      16
     324     321     327     333      16     324     321     327     336      16
     324     321     372     375      12     324     321    -372     375       4
     324     321    -372     375      13     324     321     372     378       4
     321     372     378     381       3     318     315     321     324       4
     318     315     321     327       4     318     315     321     372       4
     315     321     327     330      16     315     321     327     333      16
     405     411     414     417       4     405     411     414     420       4
     405     411     441     444       4     396     390     384     405      16
     396     390     399     402      22     393     390     384     405      16
     393     390     399     402      22     387     384     390     393      16
     387     384     390     396      16     387     384     390     399      23
     387     384    -390     399      24     387     384     405     408      12
     387     384    -405     408       4     387     384    -405     408      13
     387     384     405     411       4     384     390     399     402      23
     384     390    -399     402      25     381     378     384     387       4
     381     378     384     390       4     381     378     384     405       4
     378     384     390     393      16     378     384     390     396      16
     450     447     453     456       1     450     447    -453     456       2
     447     453     459     462       4     444     441     447     450      12
     444     441    -447     450       4     444     441    -447     450      13
     444     441     447     453       4     441     447     453     456       3
     438     432     441     444      16     438     432     441     447      16
     435     432     441     444      16     435     432     441     447      16
     429     423     432     435      26     429     423     432     438      26
     429     423     432     441      25     426     423     432     435      26
     426     423     432     438      26     426     423     432     441      25
     423     432     441     444      16     420     414     411     441       4
     420     414     423     426      16     420     414     423     429      16
     420     414     423     432      16     417     414     411     441       4
     417     414     423     426      16     417     414     423     429      16
     417     414     423     432      16     414     411     441     444       4
     414     423     432     435      25     414     423     432     438      25
     411     414     423     426      16     411     414     423     429      16
     411     441     432     435      16     411     441     432     438      16
     492     489     495     498       1     492     489    -495     498       2
     489     495     501     504       4     480     471     465     483      23
     480     471    -465     483      24     477     471     465     483      23
     477     471    -465     483      24     474     471     465     483      23
     474     471    -465     483      24     471     465     483     486      23
     471     465    -483     486      25     468     465     459     489      16
     468     465     471     474      16     468     465     471     477      16
     468     465     471     480      16     468     465     483     486      22
     462     459     465     468      16     462     459     465     471      16
     462     459     465     483      23     462     459    -465     483      24
     462     459     489     492      12     462     459    -489     492       4
     462     459    -489     492      13     462     459     489     495       4
     459     465     471     474      25     459     465     471     477      25
     459     465     471     480      25     459     465     483     486      23
     459     465    -483     486      25     459     489     495     498       3
     456     453     459     462       4     456     453     459     465       4
     456     453     459     489       4     453     459     465     468      16
     531     537     540     543       4     531     537     540     546       4
     531     537     567     570       4     513     507     501     531      16
     513     507     516     519      30     510     507     501     531      16
     510     507     516     519      30     504     501     531     534      12
     504     501    -531     534       4     504     501    -531     534      13
     504     501     531     537       4     504     501     507     513      16
     504     501     507     510      16     504     501     507     516      16
     498     495     501     504       4     498     495     501     531       4
     498     495     501     507       4     495     501     507     513      16
     495     501     507     510      16     576     573     579     582       1
     576     573    -579     582       2     573     579     585     588       4
     570     567     573     576      12     570     567    -573     576       4
     570     567    -573     576      13     570     567     573     579       4
     567     573     579     582       3     564     558     567     570      16
     564     558     567     573      16     561     558     567     570      16
     561     558     567     573      16     555     549     558     561      26
     555     549     558     564      26     555     549     558     567      25
     552     549     558     561      26     552     549     558     564      26
     552     549     558     567      25     549     558     567     570      16
     546     540     537     567       4     546     540     549     552      16
     546     540     549     555      16     546     540     549     558      16
     543     540     537     567       4     543     540     549     552      16
     543     540     549     555      16     543     540     549     558      16
     540     537     567     570       4     540     549     558     561      25
     540     549     558     564      25     537     540     549     552      16
     537     540     549     555      16     537     567     558     561      16
     537     567     558     564      16     609     606     612     615       1
     609     606    -612     615       2     606     612     618     621       4
     597     591     585     606      16     597     591     600     603      22
     594     591     585     606      16     594     591     600     603      22
     588     585     591     594      16     588     585     591     597      16
     588     585     591     600      23     588     585    -591     600      24
     588     585     606     609      12     588     585    -606     609       4
     588     585    -606     609      13     588     585     606     612       4
     585     591     600     603      23     585     591    -600     603      25
     585     606     612     615       3     582     579     585     588       4
     582     579     585     591       4     582     579     585     606       4
     579     585     591     594      16     579     585     591     597      16
     672     669     675     678       1     672     669    -675     678       2
     669     675     681     684       4     660     657     663     666      14
     654     651     648     657      15     651     648     657     660      14
     648     657     663     666      14     645     642     648     651      14
     645     642     648     657      14     642     648     651     654      15
     642     648     657     660      14     639     636     633     663      14
     639     636     642     645      14     639     636     642     648      14
     636     633     663     666      14     633     636     642     645      14
     633     663     657     660      14     630     624     618     669      16
     630     624     633     636       4     630     624     633     663       4
     627     624     618     669      16     627     624     633     636       4
     627     624     633     663       4     624     633     636     639      14
     624     633     663     666      14     621     618     624     627      16
     621     618     624     630      16     621     618     624     633      16
     621     618     669     672      12     621     618    -669     672       4
     621     618    -669     672      13     621     618     669     675       4
     618     669     675     678       3     615     612     618     621       4
     615     612     618     624       4     615     612     618     669       4
     612     618     624     627      16     612     618     624     630      16
     702     708     711     714       4     702     708     711     717       4
     702     708     738     741       4     693     687     681     702      16
     693     687     696     699      22     690     687     681     702      16
     690     687     696     699      22     684     681     687     690      16
     684     681     687     693      16     684     681     687     696      23
     684     681    -687     696      24     684     681     702     705      12
     684     681    -702     705       4     684     681    -702     705      13
     684     681     702     708       4     681     687     696     699      23
     681     687    -696     699      25     678     675     681     684       4
     678     675     681     687       4     678     675     681     702       4
     675     681     687     690      16     675     681     687     693      16
     747     744     750     753       1     747     744    -750     753       2
     744     750     756     759       4     741     738     744     747      12
     741     738    -744     747       4     741     738    -744     747      13
     741     738     744     750       4     738     744     750     753       3
     735     729     738     741      16     735     729     738     744      16
     732     729     738     741      16     732     729     738     744      16
     726     720     729     732      26     726     720     729     735      26
     726     720     729     738      25     723     720     729     732      26
     723     720     729     735      26     723     720     729     738      25
     720     729     738     741      16     717     711     708     738       4
     717     711     720     723      16     717     711     720     726      16
     717     711     720     729      16     714     711     708     738       4
     714     711     720     723      16     714     711     720     726      16
     714     711     720     729      16     711     708     738     741       4
     711     720     729     732      25     711     720     729     735      25
     708     711     720     723      16     708     711     720     726      16
     708     738     729     732      16     708     738     729     735      16
     789     786     792     795       1     789     786    -792     795       2
     786     792     798     801       4     777     768     762     780      23
     777     768    -762     780      24     774     768     762     780      23
     774     768    -762     780      24     771     768     762     780      23
     771     768    -762     780      24     768     762     780     783      23
     768     762    -780     783      25     765     762     756     786      16
     765     762     768     771      16     765     762     768     774      16
     765     762     768     777      16     765     762     780     783      22
     759     756     762     765      16     759     756     762     768      16
     759     756     762     780      23     759     756    -762     780      24
     759     756     786     789      12     759     756    -786     789       4
     759     756    -786     789      13     759     756     786     792       4
     756     762     768     771      25     756     762     768     774      25
     756     762     768     777      25     756     762     780     783      23
     756     762    -780     783      25     756     786     792     795       3
     753     750     756     759       4     753     750     756     762       4
     753     750     756     786       4     750     756     762     765      16
     828     834     837     840       4     828     834     837     843       4
     828     834     864     867       4     810     804     798     828      16
     810     804     813     816      30     807     804     798     828      16
     807     804     813     816      30     801     798     828     831      12
     801     798    -828     831       4     801     798    -828     831      13
     801     798     828     834       4     801     798     804     810      16
     801     798     804     807      16     801     798     804     813      16
     795     792     798     801       4     795     792     798     828       4
     795     792     798     804       4     792     798     804     810      16
     792     798     804     807      16     873     870     876     879       1
     873     870    -876     879       2     870     876     882     885       4
     867     864     870     873      12     867     864    -870     873       4
     867     864    -870     873      13     867     864     870     876       4
     864     870     876     879       3     861     855     864     867      16
     861     855     864     870      16     858     855     864     867      16
     858     855     864     870      16     852     846     855     858      26
     852     846     855     861      26     852     846     855     864      25
     849     846     855     858      26     849     846     855     861      26
     849     846     855     864      25     846     855     864     867      16
     843     837     834     864       4     843     837     846     849      16
     843     837     846     852      16     843     837     846     855      16
     840     837     834     864       4     840     837     846     849      16
     840     837     846     852      16     840     837     846     855      16
     837     834     864     867       4     837     846     855     858      25
     837     846     855     861      25     834     837     846     849      16
     834     837     846     852      16     834     864     855     858      16
     834     864     855     861      16     906     903     909     912       1
     906     903    -909     912       2     906     903     909     915       1
     906     903    -909     915       2     894     888     882     903      16
     894     888     897     900      22     891     888     882     903      16
     891     888     897     900      22     885     882     888     891      16
     885     882     888     894      16     885     882     888     897      23
     885     882    -888     897      24     885     882     903     906      12
     885     882    -903     906       4     885     882    -903     906      13
     885     882     903     909       4     882     888     897     900      23
     882     888    -897     900      25     882     903     909     912       3
     882     903     909     915       3     879     876     882     885       4
     879     876     882     888       4     879     876     882     903       4
     876     882     888     891      16     876     882     888     894      16
      39      63     -69     -72      33      54      69     -63     -66      33
      42      54     -48     -51      33      39      48     -42     -45      33
      12      24     -18     -21      33      75      87     -81     -84      33
     150     162    -156    -159      33     192     204    -198    -201      33
     276     288    -282    -285      33     336     360    -366    -369      33
     351     366    -360    -363      33     339     351    -345    -348      33
     336     345    -339    -342      33     309     321    -315    -318      33
     372     384    -378    -381      33     447     459    -453    -456      33
     489     501    -495    -498      33     573     585    -579    -582      33
     633     657    -663    -666      33     648     663    -657    -660      33
     636     648    -642    -645      33     633     642    -636    -639      33
     606     618    -612    -615      33     669     681    -675    -678      33
     744     756    -750    -753      33     786     798    -792    -795      33
     870     882    -876    -879      33     903     912    -909    -915      34
%FLAG DIHEDRALS_WITHOUT_HYDROGEN                                                
%FORMAT(10I8)                                                                   
      15      12      18      24       3      12      18      24      30       5
      12      18     -24      30       6      12      18     -24      30       7
      12      18     -24      30       8      12      18      24      75       9
      12      18     -24      75      10      12      18     -24      75      11
      12      18     -24      75       8       3      12      18      24       3
      78      75      81      87       3      75      81      87      93       5
      75      81     -87      93       6      75      81     -87      93       7
      75      81     -87      93       8      75      81      87     108       9
      75      81     -87     108      10      75      81     -87     108      11
      75      81     -87     108       8      57      54      63      69      14
      48      42      39      69      14      48      54     -63      69      14
      42      39      69      63      14      42      48      54      57      14
      42      48     -54      63      14      39      30      24      75      16
      39      42      48      54      14      39      69     -63      54      14
      30      24      75      78       4      30      24      75      81      17
      30      24     -75      81      18      30      24     -75      81       7
      30      24     -75      81       8      30      39      42      48      14
      30      39      69      63      14      24      30      39      42       4
      24      30      39      69       4      24      75      81      87       3
      18      24      30      39      16      18      24      75      78       4
      18      24      75      81      19      18      24     -75      81      20
      18      24     -75      81      21      18      24     -75      81       8
     111     108     114     117       3     111     108     114     144       3
     108     114     117     126       5     108     114    -117     126       6
     108     114    -117     126       7     108     114    -117     126       8
     108     114     144     135       5     108     114    -144     135       6
     108     114    -144     135       7     108     114    -144     135       8
     108     114     144     150       9     108     114    -144     150      10
     108     114    -144     150      11     108     114    -144     150       8
     102      93      87     108      16      93      87     108     111       4
      93      87     108     114      17      93      87    -108     114      18
      93      87    -108     114       7      93      87    -108     114       8
      87     108     114     117       3      87     108     114     144       3
      81      87      93     102      16      81      87     108     111       4
      81      87     108     114      19      81      87    -108     114      20
      81      87    -108     114      21      81      87    -108     114       8
     153     150     156     162       3     150     156     162     168       5
     150     156    -162     168       6     150     156    -162     168       7
     150     156    -162     168       8     150     156     162     192       9
     150     156    -162     192      10     150     156    -162     192      11
     150     156    -162     192       8     144     150     156     162       3
     135     144     150     153       4     135     144     150     156      17
     135     144    -150     156      18     135     144    -150     156       7
     135     144    -150     156       8     126     117    -114     144       4
     126     135     144     150      16     117     114    -144     135       4
     117     114     144     150       4     117     126    -135     144      27
     117     126    -135     144      28     117     126    -135     144      29
     114     117    -126     135      16     114     144    -135     126      16
     114     144     150     153       4     114     144     150     156      19
     114     144    -150     156      20     114     144    -150     156      21
     114     144    -150     156       8     195     192     198     204       3
     192     198     204     234       9     192     198    -204     234      10
     192     198    -204     234      11     192     198    -204     234       8
     192     198     204     210       5     192     198    -204     210       6
     192     198    -204     210       7     192     198    -204     210       8
     186     168     162     192      16     174     168     162     192      16
     168     162     192     195       4     168     162     192     198      17
     168     162    -192     198      18     168     162    -192     198       7
     168     162    -192     198       8     162     192     198     204       3
     156     162     168     174      16     156     162     168     186      16
     156     162     192     195       4     156     162     192     198      19
     156     162    -192     198      20     156     162    -192     198      21
     156     162    -192     198       8     237     234     240     243       3
     237     234     240     270       3     234     240     243     252       5
     234     240    -243     252       6     234     240    -243     252       7
     234     240    -243     252       8     234     240     270     261       5
     234     240    -270     261       6     234     240    -270     261       7
     234     240    -270     261       8     234     240     270     276       9
     234     240    -270     276      10     234     240    -270     276      11
     234     240    -270     276       8     219     210     204     234      16
     210     204     234     237       4     210     204     234     240      17
     210     204    -234     240      18     210     204    -234     240       7
     210     204    -234     240       8     210     219     222     225      31
     210     219     222     231      31     210     219     222     228      31
     204     234     240     243       3     204     234     240     270       3
     204     210     219     222      30     198     204     234     237       4
     198     204     234     240      19     198     204    -234     240      20
     198     204    -234     240      21     198     204    -234     240       8
     198     204     210     219      16     279     276     282     288       3
     276     282     288     294       5     276     282    -288     294       6
     276     282    -288     294       7     276     282    -288     294       8
     276     282     288     309       9     276     282    -288     309      10
     276     282    -288     309      11     276     282    -288     309       8
     270     276     282     288       3     261     270     276     279       4
     261     270     276     282      17     261     270    -276     282      18
     261     270    -276     282       7     261     270    -276     282       8
     252     243    -240     270       4     252     261     270     276      16
     243     240    -270     261       4     243     240     270     276       4
     243     252    -261     270      27     243     252    -261     270      28
     243     252    -261     270      29     240     243    -252     261      16
     240     270    -261     252      16     240     270     276     279       4
     240     270     276     282      19     240     270    -276     282      20
     240     270    -276     282      21     240     270    -276     282       8
     312     309     315     321       3     309     315     321     327       5
     309     315    -321     327       6     309     315    -321     327       7
     309     315    -321     327       8     309     315     321     372       9
     309     315    -321     372      10     309     315    -321     372      11
     309     315    -321     372       8     303     294     288     309      16
     294     288     309     312       4     294     288     309     315      17
     294     288    -309     315      18     294     288    -309     315       7
     294     288    -309     315       8     288     309     315     321       3
     282     288     294     303      16     282     288     309     312       4
     282     288     309     315      19     282     288    -309     315      20
     282     288    -309     315      21     282     288    -309     315       8
     375     372     378     384       3     372     378     384     390       5
     372     378    -384     390       6     372     378    -384     390       7
     372     378    -384     390       8     372     378     384     405       9
     372     378    -384     405      10     372     378    -384     405      11
     372     378    -384     405       8     354     351     360     366      14
     345     339     336     366      14     345     351    -360     366      14
     339     336     366     360      14     339     345     351     354      14
     339     345    -351     360      14     336     327     321     372      16
     336     339     345     351      14     336     366    -360     351      14
     327     321     372     375       4     327     321     372     378      17
     327     321    -372     378      18     327     321    -372     378       7
     327     321    -372     378       8     327     336     339     345      14
     327     336     366     360      14     321     327     336     339       4
     321     327     336     366       4     321     372     378     384       3
     315     321     327     336      16     315     321     372     375       4
     315     321     372     378      19     315     321    -372     378      20
     315     321    -372     378      21     315     321    -372     378       8
     408     405     411     414       3     408     405     411     441       3
     405     411     414     423       5     405     411    -414     423       6
     405     411    -414     423       7     405     411    -414     423       8
     405     411     441     432       5     405     411    -441     432       6
     405     411    -441     432       7     405     411    -441     432       8
     405     411     441     447       9     405     411    -441     447      10
     405     411    -441     447      11     405     411    -441     447       8
     399     390     384     405      16     390     384     405     408       4
     390     384     405     411      17     390     384    -405     411      18
     390     384    -405     411       7     390     384    -405     411       8
     384     405     411     414       3     384     405     411     441       3
     378     384     390     399      16     378     384     405     408       4
     378     384     405     411      19     378     384    -405     411      20
     378     384    -405     411      21     378     384    -405     411       8
     450     447     453     459       3     447     453     459     465       5
     447     453    -459     465       6     447     453    -459     465       7
     447     453    -459     465       8     447     453     459     489       9
     447     453    -459     489      10     447     453    -459     489      11
     447     453    -459     489       8     441     447     453     459       3
     432     441     447     450       4     432     441     447     453      17
     432     441    -447     453      18     432     441    -447     453       7
     432     441    -447     453       8     423     414    -411     441       4
     423     432     441     447      16     414     411    -441     432       4
     414     411     441     447       4     414     423    -432     441      27
     414     423    -432     441      28     414     423    -432     441      29
     411     414    -423     432      16     411     441    -432     423      16
     411     441     447     450       4     411     441     447     453      19
     411     441    -447     453      20     411     441    -447     453      21
     411     441    -447     453       8     492     489     495     501       3
     489     495     501     531       9     489     495    -501     531      10
     489     495    -501     531      11     489     495    -501     531       8
     489     495     501     507       5     489     495    -501     507       6
     489     495    -501     507       7     489     495    -501     507       8
     483     465     459     489      16     471     465     459     489      16
     465     459     489     492       4     465     459     489     495      17
     465     459    -489     495      18     465     459    -489     495       7
     465     459    -489     495       8     459     489     495     501       3
     453     459     465     471      16     453     459     465     483      16
     453     459     489     492       4     453     459     489     495      19
     453     459    -489     495      20     453     459    -489     495      21
     453     459    -489     495       8     534     531     537     540       3
     534     531     537     567       3     531     537     540     549       5
     531     537    -540     549       6     531     537    -540     549       7
     531     537    -540     549       8     531     537     567     558       5
     531     537    -567     558       6     531     537    -567     558       7
     531     537    -567     558       8     531     537     567     573       9
     531     537    -567     573      10     531     537    -567     573      11
     531     537    -567     573       8     516     507     501     531      16
     507     501     531     534       4     507     501     531     537      17
     507     501    -531     537      18     507     501    -531     537       7
     507     501    -531     537       8     507     516     519     522      31
     507     516     519     528      31     507     516     519     525      31
     501     531     537     540       3     501     531     537     567       3
     501     507     516     519      30     495     501     531     534       4
     495     501     531     537      19     495     501    -531     537      20
     495     501    -531     537      21     495     501    -531     537       8
     495     501     507     516      16     576     573     579     585       3
     573     579     585     591       5     573     579    -585     591       6
     573     579    -585     591       7     573     579    -585     591       8
     573     579     585     606       9     573     579    -585     606      10
     573     579    -585     606      11     573     579    -585     606       8
     567     573     579     585       3     558     567     573     576       4
     558     567     573     579      17     558     567    -573     579      18
     558     567    -573     579       7     558     567    -573     579       8
     549     540    -537     567       4     549     558     567     573      16
     540     537    -567     558       4     540     537     567     573       4
     540     549    -558     567      27     540     549    -558     567      28
     540     549    -558     567      29     537     540    -549     558      16
     537     567    -558     549      16     537     567     573     576       4
     537     567     573     579      19     537     567    -573     579      20
     537     567    -573     579      21     537     567    -573     579       8
     609     606     612     618       3     606     612     618     624       5
     606     612    -618     624       6     606     612    -618     624       7
     606     612    -618     624       8     606     612     618     669       9
     606     612    -618     669      10     606     612    -618     669      11
     606     612    -618     669       8     600     591     585     606      16
     591     585     606     609       4     591     585     606     612      17
     591     585    -606     612      18     591     585    -606     612       7
     591     585    -606     612       8     585     606     612     618       3
     579     585     591     600      16     579     585     606     609       4
     579     585     606     612      19     579     585    -606     612      20
     579     585    -606     612      21     579     585    -606     612       8
     672     669     675     681       3     669     675     681     687       5
     669     675    -681     687       6     669     675    -681     687       7
     669     675    -681     687       8     669     675     681     702       9
     669     675    -681     702      10     669     675    -681     702      11
     669     675    -681     702       8     651     648     657     663      14
     642     636     633     663      14     642     648    -657     663      14
     636     633     663     657      14     636     642     648     651      14
     636     642    -648     657      14     633     624     618     669      16
     633     636     642     648      14     633     663    -657     648      14
     624     618     669     672       4     624     618     669     675      17
     624     618    -669     675      18     624     618    -669     675       7
     624     618    -669     675       8     624     633     636     642      14
     624     633     663     657      14     618     624     633     636       4
     618     624     633     663       4     618     669     675     681       3
     612     618     624     633      16     612     618     669     672       4
     612     618     669     675      19     612     618    -669     675      20
     612     618    -669     675      21     612     618    -669     675       8
     705     702     708     711       3     705     702     708     738       3
     702     708     711     720       5     702     708    -711     720       6
     702     708    -711     720       7     702     708    -711     720       8
     702     708     738     729       5     702     708    -738     729       6
     702     708    -738     729       7     702     708    -738     729       8
     702     708     738     744       9     702     708    -738     744      10
     702     708    -738     744      11     702     708    -738     744       8
     696     687     681     702      16     687     681     702     705       4
     687     681     702     708      17     687     681    -702     708      18
     687     681    -702     708       7     687     681    -702     708       8
     681     702     708     711       3     681     702     708     738       3
     675     681     687     696      16     675     681     702     705       4
     675     681     702     708      19     675     681    -702     708      20
     675     681    -702     708      21     675     681    -702     708       8
     747     744     750     756       3     744     750     756     762       5
     744     750    -756     762       6     744     750    -756     762       7
     744     750    -756     762       8     744     750     756     786       9
     744     750    -756     786      10     744     750    -756     786      11
     744     750    -756     786       8     738     744     750     756       3
     729     738     744     747       4     729     738     744     750      17
     729     738    -744     750      18     729     738    -744     750       7
     729     738    -744     750       8     720     711    -708     738       4
     720     729     738     744      16     711     708    -738     729       4
     711     708     738     744       4     711     720    -729     738      27
     711     720    -729     738      28     711     720    -729     738      29
     708     711    -720     729      16     708     738    -729     720      16
     708     738     744     747       4     708     738     744     750      19
     708     738    -744     750      20     708     738    -744     750      21
     708     738    -744     750       8     789     786     792     798       3
     786     792     798     828       9     786     792    -798     828      10
     786     792    -798     828      11     786     792    -798     828       8
     786     792     798     804       5     786     792    -798     804       6
     786     792    -798     804       7     786     792    -798     804       8
     780     762     756     786      16     768     762     756     786      16
     762     756     786     789       4     762     756     786     792      17
     762     756    -786     792      18     762     756    -786     792       7
     762     756    -786     792       8     756     786     792     798       3
     750     756     762     768      16     750     756     762     780      16
     750     756     786     789       4     750     756     786     792      19
     750     756    -786     792      20     750     756    -786     792      21
     750     756    -786     792       8     831     828     834     837       3
     831     828     834     864       3     828     834     837     846       5
     828     834    -837     846       6     828     834    -837     846       7
     828     834    -837     846       8     828     834     864     855       5
     828     834    -864     855       6     828     834    -864     855       7
     828     834    -864     855       8     828     834     864     870       9
     828     834    -864     870      10     828     834    -864     870      11
     828     834    -864     870       8     813     804     798     828      16
     804     798     828     831       4     804     798     828     834      17
     804     798    -828     834      18     804     798    -828     834       7
     804     798    -828     834       8     804     813     816     819      31
     804     813     816     825      31     804     813     816     822      31
     798     828     834     837       3     798     828     834     864       3
     798     804     813     816      30     792     798     828     831       4
     792     798     828     834      19     792     798    -828     834      20
     792     798    -828     834      21     792     798    -828     834       8
     792     798     804     813      16     873     870     876     882       3
     870     876     882     888       5     870     876    -882     888       6
     870     876    -882     888       7     870     876    -882     888       8
     870     876     882     903       9     870     876    -882     903      10
     870     876    -882     903      11     870     876    -882     903       8
     864     870     876     882       3     855     864     870     873       4
     855     864     870     876      17     855     864    -870     876      18
     855     864    -870     876       7     855     864    -870     876       8
     846     837    -834     864       4     846     855     864     870      16
     837     834    -864     855       4     837     834     864     870       4
     837     846    -855     864      27     837     846    -855     864      28
     837     846    -855     864      29     834     837    -846     855      16
     834     864    -855     846      16     834     864     870     873       4
     834     864     870     876      19     834     864    -870     876      20
     834     864    -870     876      21     834     864    -870     876       8
     897     888     882     903      16     888     882     903     906       4
     888     882     903     909      17     888     882    -903     909      18
     888     882    -903     909       7     888     882    -903     909       8
     876     882     888     897      16     876     882     903     906       4
     876     882     903     909      19     876     882    -903     909      20
     876     882    -903     909      21     876     882    -903     909       8
       3      18     -12     -15      32      24      81     -75     -78      32
      48      63     -54     -57      33      42      69     -39     -30      33
      87     114    -108    -111      32     144     156    -150    -153      32
     108     117    -114    -144      34     162     198    -192    -195      32
     204     240    -234    -237      32     270     282    -276    -279      32
     234     243    -240    -270      34     288     315    -309    -312      32
     321     378    -372    -375      32     345     360    -351    -354      33
     339     366    -336    -327      33     384     411    -405    -408      32
     441     453    -447    -450      32     405     414    -411    -441      34
     459     495    -489    -492      32     501     537    -531    -534      32
     567     579    -573    -576      32     531     540    -537    -567      34
     585     612    -606    -609      32     618     675    -669    -672      32
     642     657    -648    -651      33     636     663    -633    -624      33
     681     708    -702    -705      32     738     750    -744    -747      32
     702     711    -708    -738      34     756     792    -786    -789      32
     798     834    -828    -831      32     864     876    -870    -873      32
     828     837    -834    -864      34     882     909    -903    -906      32
%FLAG EXCLUDED_ATOMS_LIST                                                       
%FORMAT(10I8)                                                                   
       2       3       4       5       6       7       3       4       5       6
       7       8       9       4       5       6       7       5       6       7
       6       7       8       9      10      11      26       7       8       9
       8       9      10      11      12      13      14      26      27      28
       9      10      11      26      10      11      12      13      14      15
      24      26      27      28      29      30      11      12      13      14
      26      27      28      12      13      14      15      16      17      22
      24      25      26      27      28      13      14      15      24      26
      14      15      24      26      15      16      17      18      19      22
      23      24      25      26      16      17      18      19      20      22
      24      25      17      18      19      24      18      19      20      21
      22      23      24      19      20      22      20      21      22      23
      24      25      21      22      23      24      22      23      24      25
      24      25      25       0      27      28      29      30      31      32
      37      28      29      30      29      30      31      32      33      34
      35      37      38      39      30      31      32      37      31      32
      33      34      35      36      37      38      39      40      49      32
      33      34      35      37      38      39      33      34      35      36
      37      38      39      34      35      36      37      35      36      37
      36      37       0      38      39      40      41      42      43      46
      49      50      51      39      40      49      40      41      42      43
      44      45      46      47      48      49      50      51      52      53
      41      42      43      44      45      46      47      48      49      50
      51      42      43      44      45      46      49      43      44      45
      46      49      44      45      46      47      48      49      50      51
      45      46      47      48      49      46      47      48      49      47
      48      49      50      51      52      53      48      49      50      51
      49      50      51      50      51      52      53      54      55      51
      52      53      52      53      54      55      56      57      65      53
      54      55      54      55      56      57      58      59      63      65
      66      67      55      56      57      65      56      57      58      59
      60      61      62      63      64      65      66      67      68      69
      57      58      59      63      65      66      67      58      59      60
      61      62      63      64      65      66      67      59      60      61
      62      63      64      65      60      61      62      63      64      65
      61      62      63      62      63      63      64      65       0      66
      67      68      69      70      71      79      67      68      69      68
      69      70      71      72      73      74      79      80      81      69
      70      71      79      70      71      72      73      74      75      79
      80      81      82      91      71      72      73      74      79      80
      81      72      73      74      75      76      77      78      79      80
      81      73      74      75      79      74      75      79      75      76
      77      78      79      76      77      78      77      78      78       0
      80      81      82      83      84      85      88      91      92      93
      81      82      91      82      83      84      85      86      87      88
      89      90      91      92      93      94      95      83      84      85
      86      87      88      89      90      91      92      93      84      85
      86      87      88      91      85      86      87      88      91      86
      87      88      89      90      91      92      93      87      88      89
      90      91      88      89      90      91      89      90      91      92
      93      94      95      90      91      92      93      91      92      93
      92      93      94      95      96      97      93      94      95      94
      95      96      97      98      99     104      95      96      97      96
      97      98      99     100     101     102     104     105     106      97
      98      99     104      98      99     100     101     102     103     104
     105     106     107     108      99     100     101     102     104     105
     106     100     101     102     103     104     105     106     101     102
     103     104     102     103     104     103     104       0     105     106
     107     108     109     110     125     106     107     108     107     108
     109     110     111     112     113     125     126     127     108     109
     110     125     109     110     111     112     113     114     123     125
     126     127     128     129     110     111     112     113     125     126
     127     111     112     113     114     115     116     121     123     124
     125     126     127     112     113     114     123     125     113     114
     123     125     114     115     116     117     118     121     122     123
     124     125     115     116     117     118     119     121     123     124
     116     117     118     123     117     118     119     120     121     122
     123     118     119     121     119     120     121     122     123     124
     120     121     122     123     121     122     123     124     123     124
     124       0     126     127     128     129     130     131     136     127
     128     129     128     129     130     131     132     133     134     136
     137     138     129     130     131     136     130     131     132     133
     134     135     136     137     138     139     148     131     132     133
     134     136     137     138     132     133     134     135     136     137
     138     133     134     135     136     134     135     136     135     136
       0     137     138     139     140     141     142     145     148     149
     150     138     139     148     139     140     141     142     143     144
     145     146     147     148     149     150     151     152     140     141
     142     143     144     145     146     147     148     149     150     141
     142     143     144     145     148     142     143     144     145     148
     143     144     145     146     147     148     149     150     144     145
     146     147     148     145     146     147     148     146     147     148
     149     150     151     152     147     148     149     150     148     149
     150     149     150     151     152     153     154     150     151     152
     151     152     153     154     155     156     164     152     153     154
     153     154     155     156     157     158     162     164     165     166
     154     155     156     164     155     156     157     158     159     160
     161     162     163     164     165     166     167     168     156     157
     158     162     164     165     166     157     158     159     160     161
     162     163     164     165     166     158     159     160     161     162
     163     164     159     160     161     162     163     164     160     161
     162     161     162     162     163     164       0     165     166     167
     168     169     170     178     166     167     168     167     168     169
     170     171     172     173     178     179     180     168     169     170
     178     169     170     171     172     173     174     178     179     180
     181     190     170     171     172     173     178     179     180     171
     172     173     174     175     176     177     178     179     180     172
     173     174     178     173     174     178     174     175     176     177
     178     175     176     177     176     177     177       0     179     180
     181     182     183     184     187     190     191     192     180     181
     190     181     182     183     184     185     186     187     188     189
     190     191     192     193     194     182     183     184     185     186
     187     188     189     190     191     192     183     184     185     186
     187     190     184     185     186     187     190     185     186     187
     188     189     190     191     192     186     187     188     189     190
     187     188     189     190     188     189     190     191     192     193
     194     189     190     191     192     190     191     192     191     192
     193     194     195     196     192     193     194     193     194     195
     196     197     198     203     194     195     196     195     196     197
     198     199     200     201     203     204     205     196     197     198
     203     197     198     199     200     201     202     203     204     205
     206     207     198     199     200     201     203     204     205     199
     200     201     202     203     204     205     200     201     202     203
     201     202     203     202     203       0     204     205     206     207
     208     209     224     205     206     207     206     207     208     209
     210     211     212     224     225     226     207     208     209     224
     208     209     210     211     212     213     222     224     225     226
     227     228     209     210     211     212     224     225     226     210
     211     212     213     214     215     220     222     223     224     225
     226     211     212     213     222     224     212     213     222     224
     213     214     215     216     217     220     221     222     223     224
     214     215     216     217     218     220     222     223     215     216
     217     222     216     217     218     219     220     221     222     217
     218     220     218     219     220     221     222     223     219     220
     221     222     220     221     222     223     222     223     223       0
     225     226     227     228     229     230     235     226     227     228
     227     228     229     230     231     232     233     235     236     237
     228     229     230     235     229     230     231     232     233     234
     235     236     237     238     247     230     231     232     233     235
     236     237     231     232     233     234     235     236     237     232
     233     234     235     233     234     235     234     235       0     236
     237     238     239     240     241     244     247     248     249     237
     238     247     238     239     240     241     242     243     244     245
     246     247     248     249     250     251     239     240     241     242
     243     244     245     246     247     248     249     240     241     242
     243     244     247     241     242     243     244     247     242     243
     244     245     246     247     248     249     243     244     245     246
     247     244     245     246     247     245     246     247     248     249
     250     251     246     247     248     249     247     248     249     248
     249     250     251     252     253     249     250     251     250     251
     252     253     254     255     263     251     252     253     252     253
     254     255     256     257     261     263     264     265     253     254
     255     263     254     255     256     257     258     259     260     261
     262     263     264     265     266     267     255     256     257     261
     263     264     265     256     257     258     259     260     261     262
     263     264     265     257     258     259     260     261     262     263
     258     259     260     261     262     263     259     260     261     260
     261     261     262     263       0     264     265     266     267     268
     269     277     265     266     267     266     267     268     269     270
     271     272     277     278     279     267     268     269     277     268
     269     270     271     272     273     277     278     279     280     289
     269     270     271     272     277     278     279     270     271     272
     273     274     275     276     277     278     279     271     272     273
     277     272     273     277     273     274     275     276     277     274
     275     276     275     276     276       0     278     279     280     281
     282     283     286     289     290     291     279     280     289     280
     281     282     283     284     285     286     287     288     289     290
     291     292     293     281     282     283     284     285     286     287
     288     289     290     291     282     283     284     285     286     289
     283     284     285     286     289     284     285     286     287     288
     289     290     291     285     286     287     288     289     286     287
     288     289     287     288     289     290     291     292     293     288
     289     290     291     289     290     291     290     291     292     293
     294     295     291     292     293     292     293     294     295     296
     297     302     293     294     295     294     295     296     297     298
     299     300     302     303     304     295     296     297     302     296
     297     298     299     300     301     302     303     304     305     306
     297     298     299     300     302     303     304     298     299     300
     301     302     303     304     299     300     301     302     300     301
     302     301     302       0     303     304     305     306     304     305
     306     305     306     306       0
%FLAG HBOND_ACOEF                                                               
%FORMAT(5E16.8)                                                                 

%FLAG HBOND_BCOEF                                                               
%FORMAT(5E16.8)                                                                 

%FLAG HBCUT                                                                     
%FORMAT(5E16.8)                                                                 

%FLAG AMBER_ATOM_TYPE                                                           
%FORMAT(20a4)                                                                   
HC  CT  HC  HC  C   O   N   H   CT  H1  CT  HC  HC  CA  CA  HA  CA  HA  C   OH  
HO  CA  HA  CA  HA  C   O   N   H   CT  H1  CT  H1  H1  OH  HO  C   O   N   CT  
H1  H1  CT  HC  HC  CT  HC  HC  CT  H1  C   O   N   H   CT  H1  CT  H1  CT  HC  
HC  HC  OH  HO  C   O   N   H   CT  H1  CT  H1  H1  OZ  P   OX  OX  OX  C   O   
N   CT  H1  H1  CT  HC  HC  CT  HC  HC  CT  H1  C   O   N   H   CT  H1  CT  H1  
H1  OH  HO  C   O   N   H   CT  H1  CT  HC  HC  CA  CA  HA  CA  HA  C   OH  HO  
CA  HA  CA  HA  C   O   N   H   CT  H1  CT  H1  H1  OH  HO  C   O   N   CT  H1  
H1  CT  HC  HC  CT  HC  HC  CT  H1  C   O   N   H   CT  H1  CT  H1  CT  HC  HC  
HC  OH  HO  C   O   N   H   CT  H1  CT  H1  H1  OZ  P   OX  OX  OX  C   O   N   
CT  H1  H1  CT  HC  HC  CT  HC  HC  CT  H1  C   O   N   H   CT  H1  CT  H1  H1  
OH  HO  C   O   N   H   CT  H1  CT  HC  HC  CA  CA  HA  CA  HA  C   OH  HO  CA  
HA  CA  HA  C   O   N   H   CT  H1  CT  H1  H1  OH  HO  C   O   N   CT  H1  H1  
CT  HC  HC  CT  HC  HC  CT  H1  C   O   N   H   CT  H1  CT  H1  CT  HC  HC  HC  
OH  HO  C   O   N   H   CT  H1  CT  H1  H1  OZ  P   OX  OX  OX  C   O   N   CT  
H1  H1  CT  HC  HC  CT  HC  HC  CT  H1  C   O   N   H   CT  H1  CT  H1  H1  OH  
HO  C   O   N   H   H   
%FLAG TREE_CHAIN_CLASSIFICATION                                                 
%FORMAT(20a4)                                                                   
BLA BLA BLA BLA BLA BLA M   E   M   E   3   E   E   B   B   E   B   E   B   S   
E   S   E   S   E   M   E   M   E   M   E   3   E   E   S   E   M   E   M   3   
E   E   3   E   E   B   E   E   M   E   M   E   M   E   M   E   3   E   3   E   
E   E   S   E   M   E   M   E   M   E   3   E   E   S   3   E   E   E   M   E   
M   3   E   E   3   E   E   B   E   E   M   E   M   E   M   E   M   E   3   E   
E   S   E   M   E   M   E   M   E   3   E   E   B   B   E   B   E   B   S   E   
S   E   S   E   M   E   M   E   M   E   3   E   E   S   E   M   E   M   3   E   
E   3   E   E   B   E   E   M   E   M   E   M   E   M   E   3   E   3   E   E   
E   S   E   M   E   M   E   M   E   3   E   E   S   3   E   E   E   M   E   M   
3   E   E   3   E   E   B   E   E   M   E   M   E   M   E   M   E   3   E   E   
S   E   M   E   M   E   M   E   3   E   E   B   B   E   B   E   B   S   E   S   
E   S   E   M   E   M   E   M   E   3   E   E   S   E   M   E   M   3   E   E   
3   E   E   B   E   E   M   E   M   E   M   E   M   E   3   E   3   E   E   E   
S   E   M   E   M   E   M   E   3   E   E   S   3   E   E   E   M   E   M   3   
E   E   3   E   E   B   E   E   M   E   M   E   M   E   M   E   3   E   E   S   
E   M   E   BLA BLA BLA 
%FLAG JOIN_ARRAY                                                                
%FORMAT(10I8)                                                                   
       0       0       0       0       0       0       0       0       0       0
       0       0       0       0       0       0       0       0       0       0
       0       0       0       0       0       0       0       0       0       0
       0       0       0       0       0       0       0       0       0       0
       0       0       0       0       0       0       0       0       0       0
       0       0       0       0       0       0       0       0       0       0
       0       0       0       0       0       0       0       0       0       0
       0       0       0       0       0       0       0       0       0       0
       0       0       0       0       0       0       0       0       0       0
       0       0       0       0       0       0       0       0       0       0
       0       0       0       0       0       0       0       0       0       0
       0       0       0       0       0       0       0       0       0       0
       0       0       0       0       0       0       0       0       0       0
       0       0       0       0       0       0       0       0       0       0
       0       0       0       0       0       0       0       0       0       0
       0       0       0       0       0       0       0       0       0       0
       0       0       0       0       0       0       0       0       0       0
       0       0       0       0       0       0       0       0       0       0
       0       0       0       0       0       0       0       0       0       0
       0       0       0       0       0       0       0       0       0       0
       0       0       0       0       0       0       0       0       0       0
       0       0       0       0       0       0       0       0       0       0
       0       0       0       0       0       0       0       0       0       0
       0       0       0       0       0       0       0       0       0       0
       0       0       0       0       0       0       0       0       0       0
       0       0       0       0       0       0       0       0       0       0
       0       0       0       0       0       0       0       0       0       0
       0       0       0       0       0       0       0       0       0       0
       0       0       0       0       0       0       0       0       0       0
       0       0       0       0       0       0       0       0       0       0
       0       0       0       0       0       0
%FLAG IROTAT                                                                    
%FORMAT(10I8)                                                                   
       0       0       0       0       0       0       0       0       0       0
       0       0       0       0       0       0       0       0       0       0
       0       0       0       0       0       0       0       0       0       0
       0       0       0       0       0       0       0       0       0       0
       0       0       0       0       0       0       0       0       0       0
       0       0       0       0       0       0       0       0       0       0
       0       0       0       0       0       0       0       0       0       0
       0       0       0       0       0       0       0       0       0       0
       0       0       0       0       0       0       0       0       0       0
       0       0       0       0       0       0       0       0       0       0
       0       0       0       0       0       0       0       0       0       0
       0       0       0       0       0       0       0       0       0       0
       0       0       0       0       0       0       0       0       0       0
       0       0       0       0       0       0       0       0       0       0
       0       0       0       0       0       0       0       0       0       0
       0       0       0       0       0       0       0       0       0       0
       0       0       0       0       0       0       0       0       0       0
       0       0       0       0       0       0       0       0       0       0
       0       0       0       0       0       0       0       0       0       0
       0       0       0       0       0       0       0       0       0       0
       0       0       0       0       0       0       0       0       0       0
       0       0       0       0       0       0       0       0       0       0
       0       0       0       0       0       0       0       0       0       0
       0       0       0       0       0       0       0       0       0       0
       0       0       0       0       0       0       0       0       0       0
       0       0       0       0       0       0       0       0       0       0
       0       0       0       0       0       0       0       0       0       0
       0       0       0       0       0       0       0       0       0       0
       0       0       0       0       0       0       0       0       0       0
       0       0       0       0       0       0       0       0       0       0
       0       0       0       0       0       0
%FLAG RADIUS_SET                                                                
%FORMAT(1a80)                                                                   
modified Bondi radii (mbondi)                                                   
%FLAG RADII                                                                     
%FORMAT(5E16.8)                                                                 
  1.30000000E+00  1.70000000E+00  1.30000000E+00  1.30000000E+00  1.70000000E+00
  1.50000000E+00  1.55000000E+00  1.30000000E+00  1.70000000E+00  1.30000000E+00
  1.70000000E+00  1.30000000E+00  1.30000000E+00  1.70000000E+00  1.70000000E+00
  1.30000000E+00  1.70000000E+00  1.30000000E+00  1.70000000E+00  1.50000000E+00
  8.00000000E-01  1.70000000E+00  1.30000000E+00  1.70000000E+00  1.30000000E+00
  1.70000000E+00  1.50000000E+00  1.55000000E+00  1.30000000E+00  1.70000000E+00
  1.30000000E+00  1.70000000E+00  1.30000000E+00  1.30000000E+00  1.50000000E+00
  8.00000000E-01  1.70000000E+00  1.50000000E+00  1.55000000E+00  1.70000000E+00
  1.30000000E+00  1.30000000E+00  1.70000000E+00  1.30000000E+00  1.30000000E+00
  1.70000000E+00  1.30000000E+00  1.30000000E+00  1.70000000E+00  1.30000000E+00
  1.70000000E+00  1.50000000E+00  1.55000000E+00  1.30000000E+00  1.70000000E+00
  1.30000000E+00  1.70000000E+00  1.30000000E+00  1.70000000E+00  1.30000000E+00
  1.30000000E+00  1.30000000E+00  1.50000000E+00  8.00000000E-01  1.70000000E+00
  1.50000000E+00  1.55000000E+00  1.30000000E+00  1.70000000E+00  1.30000000E+00
  1.70000000E+00  1.30000000E+00  1.30000000E+00  1.50000000E+00  1.85000000E+00
  1.50000000E+00  1.50000000E+00  1.50000000E+00  1.70000000E+00  1.50000000E+00
  1.55000000E+00  1.70000000E+00  1.30000000E+00  1.30000000E+00  1.70000000E+00
  1.30000000E+00  1.30000000E+00  1.70000000E+00  1.30000000E+00  1.30000000E+00
  1.70000000E+00  1.30000000E+00  1.70000000E+00  1.50000000E+00  1.55000000E+00
  1.30000000E+00  1.70000000E+00  1.30000000E+00  1.70000000E+00  1.30000000E+00
  1.30000000E+00  1.50000000E+00  8.00000000E-01  1.70000000E+00  1.50000000E+00
  1.55000000E+00  1.30000000E+00  1.70000000E+00  1.30000000E+00  1.70000000E+00
  1.30000000E+00  1.30000000E+00  1.70000000E+00  1.70000000E+00  1.30000000E+00
  1.70000000E+00  1.30000000E+00  1.70000000E+00  1.50000000E+00  8.00000000E-01
  1.70000000E+00  1.30000000E+00  1.70000000E+00  1.30000000E+00  1.70000000E+00
  1.50000000E+00  1.55000000E+00  1.30000000E+00  1.70000000E+00  1.30000000E+00
  1.70000000E+00  1.30000000E+00  1.30000000E+00  1.50000000E+00  8.00000000E-01
  1.70000000E+00  1.50000000E+00  1.55000000E+00  1.70000000E+00  1.30000000E+00
  1.30000000E+00  1.70000000E+00  1.30000000E+00  1.30000000E+00  1.70000000E+00
  1.30000000E+00  1.30000000E+00  1.70000000E+00  1.30000000E+00  1.70000000E+00
  1.50000000E+00  1.55000000E+00  1.30000000E+00  1.70000000E+00  1.30000000E+00
  1.70000000E+00  1.30000000E+00  1.70000000E+00  1.30000000E+00  1.30000000E+00
  1.30000000E+00  1.50000000E+00  8.00000000E-01  1.70000000E+00  1.50000000E+00
  1.55000000E+00  1.30000000E+00  1.70000000E+00  1.30000000E+00  1.70000000E+00
  1.30000000E+00  1.30000000E+00  1.50000000E+00  1.85000000E+00  1.50000000E+00
  1.50000000E+00  1.50000000E+00  1.70000000E+00  1.50000000E+00  1.55000000E+00
  1.70000000E+00  1.30000000E+00  1.30000000E+00  1.70000000E+00  1.30000000E+00
  1.30000000E+00  1.70000000E+00  1.30000000E+00  1.30000000E+00  1.70000000E+00
  1.30000000E+00  1.70000000E+00  1.50000000E+00  1.55000000E+00  1.30000000E+00
  1.70000000E+00  1.30000000E+00  1.70000000E+00  1.30000000E+00  1.30000000E+00
  1.50000000E+00  8.00000000E-01  1.70000000E+00  1.50000000E+00  1.55000000E+00
  1.30000000E+00  1.70000000E+00  1.30000000E+00  1.70000000E+00  1.30000000E+00
  1.30000000E+00  1.70000000E+00  1.70000000E+00  1.30000000E+00  1.70000000E+00
  1.30000000E+00  1.70000000E+00  1.50000000E+00  8.00000000E-01  1.70000000E+00
  1.30000000E+00  1.70000000E+00  1.30000000E+00  1.70000000E+00  1.50000000E+00
  1.55000000E+00  1.30000000E+00  1.70000000E+00  1.30000000E+00  1.70000000E+00
  1.30000000E+00  1.30000000E+00  1.50000000E+00  8.00000000E-01  1.70000000E+00
  1.50000000E+00  1.55000000E+00  1.70000000E+00  1.30000000E+00  1.30000000E+00
  1.70000000E+00  1.30000000E+00  1.30000000E+00  1.70000000E+00  1.30000000E+00
  1.30000000E+00  1.70000000E+00  1.30000000E+00  1.70000000E+00  1.50000000E+00
  1.55000000E+00  1.30000000E+00  1.70000000E+00  1.30000000E+00  1.70000000E+00
  1.30000000E+00  1.70000000E+00  1.30000000E+00  1.30000000E+00  1.30000000E+00
  1.50000000E+00  8.00000000E-01  1.70000000E+00  1.50000000E+00  1.55000000E+00
  1.30000000E+00  1.70000000E+00  1.30000000E+00  1.70000000E+00  1.30000000E+00
  1.30000000E+00  1.50000000E+00  1.85000000E+00  1.50000000E+00  1.50000000E+00
  1.50000000E+00  1.70000000E+00  1.50000000E+00  1.55000000E+00  1.70000000E+00
  1.30000000E+00  1.30000000E+00  1.70000000E+00  1.30000000E+00  1.30000000E+00
  1.70000000E+00  1.30000000E+00  1.30000000E+00  1.70000000E+00  1.30000000E+00
  1.70000000E+00  1.50000000E+00  1.55000000E+00  1.30000000E+00  1.70000000E+00
  1.30000000E+00  1.70000000E+00  1.30000000E+00  1.30000000E+00  1.50000000E+00
  8.00000000E-01  1.70000000E+00  1.50000000E+00  1.55000000E+00  1.30000000E+00
  1.30000000E+00
%FLAG SCREEN                                                                    
%FORMAT(5E16.8)                                                                 
  8.50000000E-01  7.20000000E-01  8.50000000E-01  8.50000000E-01  7.20000000E-01
  8.50000000E-01  7.90000000E-01  8.50000000E-01  7.20000000E-01  8.50000000E-01
  7.20000000E-01  8.50000000E-01  8.50000000E-01  7.20000000E-01  7.20000000E-01
  8.50000000E-01  7.20000000E-01  8.50000000E-01  7.20000000E-01  8.50000000E-01
  8.50000000E-01  7.20000000E-01  8.50000000E-01  7.20000000E-01  8.50000000E-01
  7.20000000E-01  8.50000000E-01  7.90000000E-01  8.50000000E-01  7.20000000E-01
  8.50000000E-01  7.20000000E-01  8.50000000E-01  8.50000000E-01  8.50000000E-01
  8.50000000E-01  7.20000000E-01  8.50000000E-01  7.90000000E-01  7.20000000E-01
  8.50000000E-01  8.50000000E-01  7.20000000E-01  8.50000000E-01  8.50000000E-01
  7.20000000E-01  8.50000000E-01  8.50000000E-01  7.20000000E-01  8.50000000E-01
  7.20000000E-01  8.50000000E-01  7.90000000E-01  8.50000000E-01  7.20000000E-01
  8.50000000E-01  7.20000000E-01  8.50000000E-01  7.20000000E-01  8.50000000E-01
  8.50000000E-01  8.50000000E-01  8.50000000E-01  8.50000000E-01  7.20000000E-01
  8.50000000E-01  7.90000000E-01  8.50000000E-01  7.20000000E-01  8.50000000E-01
  7.20000000E-01  8.50000000E-01  8.50000000E-01  8.50000000E-01  8.60000000E-01
  8.50000000E-01  8.50000000E-01  8.50000000E-01  7.20000000E-01  8.50000000E-01
  7.90000000E-01  7.20000000E-01  8.50000000E-01  8.50000000E-01  7.20000000E-01
  8.50000000E-01  8.50000000E-01  7.20000000E-01  8.50000000E-01  8.50000000E-01
  7.20000000E-01  8.50000000E-01  7.20000000E-01  8.50000000E-01  7.90000000E-01
  8.50000000E-01  7.20000000E-01  8.50000000E-01  7.20000000E-01  8.50000000E-01
  8.50000000E-01  8.50000000E-01  8.50000000E-01  7.20000000E-01  8.50000000E-01
  7.90000000E-01  8.50000000E-01  7.20000000E-01  8.50000000E-01  7.20000000E-01
  8.50000000E-01  8.50000000E-01  7.20000000E-01  7.20000000E-01  8.50000000E-01
  7.20000000E-01  8.50000000E-01  7.20000000E-01  8.50000000E-01  8.50000000E-01
  7.20000000E-01  8.50000000E-01  7.20000000E-01  8.50000000E-01  7.20000000E-01
  8.50000000E-01  7.90000000E-01  8.50000000E-01  7.20000000E-01  8.50000000E-01
  7.20000000E-01  8.50000000E-01  8.50000000E-01  8.50000000E-01  8.50000000E-01
  7.20000000E-01  8.50000000E-01  7.90000000E-01  7.20000000E-01  8.50000000E-01
  8.50000000E-01  7.20000000E-01  8.50000000E-01  8.50000000E-01  7.20000000E-01
  8.50000000E-01  8.50000000E-01  7.20000000E-01  8.50000000E-01  7.20000000E-01
  8.50000000E-01  7.90000000E-01  8.50000000E-01  7.20000000E-01  8.50000000E-01
  7.20000000E-01  8.50000000E-01  7.20000000E-01  8.50000000E-01  8.50000000E-01
  8.50000000E-01  8.50000000E-01  8.50000000E-01  7.20000000E-01  8.50000000E-01
  7.90000000E-01  8.50000000E-01  7.20000000E-01  8.50000000E-01  7.20000000E-01
  8.50000000E-01  8.50000000E-01  8.50000000E-01  8.60000000E-01  8.50000000E-01
  8.50000000E-01  8.50000000E-01  7.20000000E-01  8.50000000E-01  7.90000000E-01
  7.20000000E-01  8.50000000E-01  8.50000000E-01  7.20000000E-01  8.50000000E-01
  8.50000000E-01  7.20000000E-01  8.50000000E-01  8.50000000E-01  7.20000000E-01
  8.50000000E-01  7.20000000E-01  8.50000000E-01  7.90000000E-01  8.50000000E-01
  7.20000000E-01  8.50000000E-01  7.20000000E-01  8.50000000E-01  8.50000000E-01
  8.50000000E-01  8.50000000E-01  7.20000000E-01  8.50000000E-01  7.90000000E-01
  8.50000000E-01  7.20000000E-01  8.50000000E-01  7.20000000E-01  8.50000000E-01
  8.50000000E-01  7.20000000E-01  7.20000000E-01  8.50000000E-01  7.20000000E-01
  8.50000000E-01  7.20000000E-01  8.50000000E-01  8.50000000E-01  7.20000000E-01
  8.50000000E-01  7.20000000E-01  8.50000000E-01  7.20000000E-01  8.50000000E-01
  7.90000000E-01  8.50000000E-01  7.20000000E-01  8.50000000E-01  7.20000000E-01
  8.50000000E-01  8.50000000E-01  8.50000000E-01  8.50000000E-01  7.20000000E-01
  8.50000000E-01  7.90000000E-01  7.20000000E-01  8.50000000E-01  8.50000000E-01
  7.20000000E-01  8.50000000E-01  8.50000000E-01  7.20000000E-01  8.50000000E-01
  8.50000000E-01  7.20000000E-01  8.50000000E-01  7.20000000E-01  8.50000000E-01
  7.90000000E-01  8.50000000E-01  7.20000000E-01  8.50000000E-01  7.20000000E-01
  8.50000000E-01  7.20000000E-01  8.50000000E-01  8.50000000E-01  8.50000000E-01
  8.50000000E-01  8.50000000E-01  7.20000000E-01  8.50000000E-01  7.90000000E-01
  8.50000000E-01  7.20000000E-01  8.50000000E-01  7.20000000E-01  8.50000000E-01
  8.50000000E-01  8.50000000E-01  8.60000000E-01  8.50000000E-01  8.50000000E-01
  8.50000000E-01  7.20000000E-01  8.50000000E-01  7.90000000E-01  7.20000000E-01
  8.50000000E-01  8.50000000E-01  7.20000000E-01  8.50000000E-01  8.50000000E-01
  7.20000000E-01  8.50000000E-01  8.50000000E-01  7.20000000E-01  8.50000000E-01
  7.20000000E-01  8.50000000E-01  7.90000000E-01  8.50000000E-01  7.20000000E-01
  8.50000000E-01  7.20000000E-01  8.50000000E-01  8.50000000E-01  8.50000000E-01
  8.50000000E-01  7.20000000E-01  8.50000000E-01  7.90000000E-01  8.50000000E-01
  8.50000000E-01
%FLAG IPOL                                                                      
%FORMAT(1I8)                                                                    
       0
