default_name
 12267
  35.8521419  37.6244016  34.0310097  36.0831615  36.5600871  34.0753344
  35.1812801  36.0021846  34.3272333  36.8431386  36.3841207  34.8366291
  36.6113056  36.0546630  32.7312695  36.7272175  36.8226429  31.7772981
  35.5032637  35.3610231  32.9728923  35.4836673  34.6849928  33.7230246
  34.3101110  35.5150616  32.1502302  34.4094880  36.3898698  31.5084773
  34.1207569  34.2929860  31.2483176  33.6661032  33.5105598  31.8559347
  33.4326326  34.5811254  30.4536097  35.4043821  33.7761677  30.6400585
  36.2851051  32.9994608  31.3825095  36.0360907  32.7681175  32.4081108
  37.4598012  32.5235843  30.8314799  38.1297126  31.9213508  31.4275769
  37.7685088  32.8232892  29.5225194  38.9376367  32.3523557  28.9707400
  38.9962496  32.6717225  28.0562159  36.9102613  33.5945569  28.7613530
  37.1505542  33.8306820  27.7360173  35.7379492  34.0641687  29.3227300
  35.0622507  34.6679568  28.7345128  33.0780646  35.7136605  33.0276845
  33.1992334  36.0339616  34.2099765  31.9023686  35.5219945  32.4397321
  31.8593157  35.3292213  31.4492351  30.6494161  35.6282666  33.1785476
  30.8534536  35.8516172  34.2266107  29.7912579  36.7647426  32.6183684
  29.2197897  36.3857391  31.7710906  29.1062665  37.1012481  33.3966041
  30.5968282  37.8517431  32.1961593  30.0362511  38.5498391  31.8497275
  29.8814422  34.3132413  33.1200456  30.2509180  33.4060005  32.3735398
  28.8162150  34.2197899  33.9088489  28.5145754  34.9399175  35.1159574
  28.2140474  35.9531078  34.8490706  29.4139374  34.9782660  35.7305927
  27.4225314  34.1736254  35.7600672  26.8151489  34.8492631  36.3623124
  27.8521936  33.4035091  36.4007018  26.6264874  33.5640285  34.6549521
  25.9108785  34.3048162  34.2982497  26.1060890  32.6304749  34.8688749
  27.7044631  33.3296357  33.5947548  28.0606323  32.3031132  33.5157038
  27.0757845  33.7119130  32.2587409  26.7764567  34.8817187  32.0200436
  26.8814087  32.7195996  31.3963899  27.1017870  31.7703278  31.6617494
  26.3840607  32.9625748  30.0472535  26.0285912  33.9890978  29.9610788
  27.4867474  32.7580895  28.9927048  27.8010006  31.7130141  28.9932581
  26.9687607  33.1047983  27.6057874  27.7632011  32.9543029  26.8729705
  26.6506405  34.1480152  27.5870245  26.1224985  32.4617488  27.3625413
  28.6086976  33.5943170  29.3023391  29.3353272  33.0231756  29.4768411
  25.2155701  32.0341336  29.7340689  24.0604543  32.3736727  29.9904567
  25.5264107  30.8652973  29.1815212  26.4517227  30.5204115  29.0381666
  24.4996778  29.9203396  28.7603460  23.5291404  30.2234168  29.1527608
  24.3962488  29.8870065  27.2335709  25.3930131  29.7744853  26.8237306
  23.8214317  29.0053629  26.9799755  23.7810382  31.0872333  26.7298480
  22.2144351  31.1256806  26.4594163  21.5909718  30.2937305  27.5200103
  21.8366595  32.5612620  26.4161320  22.0854867  30.4383936  25.1210942
  24.8064882  28.5250362  29.2947185  25.9442000  28.2344483  29.6636201
  23.7868236  27.6745719  29.3319285  22.4238230  28.0314552  29.0539110
  22.3637203  28.3841430  28.0242998  22.1337769  28.8354540  29.7303414
  21.6385719  26.7917271  29.2786577  21.1899308  26.5100970  28.3260272
  20.8513761  27.0263822  29.9951499  22.5297891  25.7153832  29.8003632
  22.6119582  24.9860376  28.9945083  22.2092075  25.2130615  30.7130515
  23.8813281  26.3953201  30.0260673  24.2124158  26.5522894  31.0533762
  24.8976086  25.4891080  29.3402944  24.9403053  25.4148092  28.1120458
  25.7093682  24.8065446  30.1405559  25.6734406  24.9529669  31.1392396
  26.6977409  23.8719688  29.6137442  26.8537329  24.0551459  28.5506479
  28.0415645  24.0587336  30.3211917  28.3179386  25.1120093  30.2729543
  27.9316807  23.7598433  31.3636360  29.0527562  23.2771022  29.7102770
  28.8896110  22.3828813  29.9481057  26.2140426  22.4353331  29.7765932
  25.8259886  21.7922674  28.8005590  26.2419422  21.9431251  31.0110946
  26.5265564  22.5295242  31.7826062  25.9125553  20.5497459  31.2867349
  25.5317128  20.0706269  30.3856838  27.1580420  19.7826207  31.7335009
  27.3190132  20.0137084  32.7864899  26.9405273  18.7201353  31.6243575
  28.4029991  20.1253485  30.9465488  28.4355560  19.9875666  29.5644916
  27.5516858  19.6302355  29.0567939  29.5701012  20.2992081  28.8404035
  29.5732846  20.1844110  27.7666365  30.6932398  20.7544491  29.4970217
  31.8249631  21.0655787  28.7798454  31.8090269  20.5670232  27.9482106
  30.6878151  20.9005442  30.8710958  31.5670528  21.2575440  31.3870051
  29.5477425  20.5864691  31.5855132  29.5350857  20.6971375  32.6597363
  24.8300474  20.4597338  32.3572252  23.7912704  19.8331481  32.1451079
  25.0820018  21.0882467  33.5011555  26.0144243  21.4225829  33.6984039
  24.0519373  21.2749691  34.5154611  23.5349371  20.3331941  34.7016535
  24.6758399  21.7322145  35.8358906  25.3363974  22.5760035  35.6364334
  23.8781066  22.0470631  36.5086402  25.4164661  20.6851378  36.4391975
  26.1509614  21.0839734  36.8707539  23.0179860  22.2926387  34.0454308
  23.3147894  23.1420536  33.2051986  21.8103709  22.1984139  34.5928816
  21.3590516  21.0165898  35.2748073  21.4646348  21.1739770  36.3482046
  21.9848321  20.1786286  34.9676939  19.9414877  20.8476729  34.8591814
  19.3830584  20.3186370  35.6314357  19.8871977  20.2887753  33.9249504
  19.4350742  22.2395259  34.6773833  19.2564966  22.6792368  35.6586393
  18.5575667  22.3880876  34.0480903  20.6581014  22.8918942  34.0299907
  20.6912453  22.8474202  32.9412564  20.6662687  24.3606847  34.4389855
  20.5863181  25.2470714  33.5888782  20.7646763  24.6060216  35.7415617
  20.6926603  23.8478432  36.4049459  20.9439895  25.9593524  36.2549937
  20.4474244  26.6758762  35.5998221  20.3399551  26.1140545  37.6633792
  20.8222186  26.9475634  38.1763497  18.8487502  26.3995932  37.5736875
  18.3505371  25.5754247  37.0631685  18.4376590  26.5061072  38.5775589
  18.6878465  27.3221731  37.0159626  20.5477650  24.9080582  38.4097818
  20.6985955  25.1630851  39.3016027  22.4251620  26.3193515  36.3056436
  22.9157664  26.8051829  37.3240542  23.1261055  26.0776946  35.2020884
  22.7487147  25.7614596  34.3341767  24.5637407  26.3083769  35.1423406
  24.8881480  26.8693770  36.0180236  25.3196207  24.9784871  35.1336997
  25.1486561  24.4799138  36.0804651  24.8814481  24.3771579  34.3472971
  26.7296576  25.1845074  34.9242819  27.7283877  23.9482957  34.9647253
  27.3435578  23.1442599  36.1523033  27.6264793  23.2884135  33.6386984
  29.0684227  24.6038771  35.1984264  24.9224139  27.1229573  33.9037760
  25.6133867  26.6316542  33.0103026  24.4501940  28.3640715  33.8613500
  23.7799718  29.0654783  34.9215084  24.1788164  28.7102174  35.8716730
  22.7162944  28.8341157  34.8652874  24.0594114  30.5057273  34.6882651
  24.9673381  30.7967064  35.2165636  23.2233879  31.1072026  35.0451873
  24.2211408  30.6418617  33.2111168  24.9086367  31.4617994  33.0033897
  23.3043110  30.7832942  32.6388235  24.8717251  29.3093861  32.8337700
  24.5703685  28.9497263  31.8498848  26.3891380  29.4574129  32.8343263
  26.9271334  30.3829486  33.4413926  27.0684817  28.5410925  32.1514477
  26.5768973  27.7892947  31.6896640  28.5239839  28.5595442  32.0829869
  28.9424899  28.7097999  33.0783587  29.0532228  27.2263790  31.5513001
  28.4336185  26.4215502  31.9468254  28.9886936  27.2327048  30.4632303
  30.4926336  26.9697629  31.9495382  31.4136046  27.6060433  31.4360270
  30.6943386  26.0328423  32.8693392  29.9006786  25.5305964  33.2676695
  31.6411764  25.8163361  33.1782408  29.0029628  29.7041139  31.1954717
  28.1967477  30.3705945  30.5467476  30.3140867  29.9220749  31.1751455
  30.9351500  29.3153173  31.6911154  30.8905988  31.0517116  30.4571332
  30.2011751  31.8957967  30.4719733  32.1936016  31.5009443  31.1227928
  32.5047897  32.4237338  30.6331800  31.9681824  31.7038928  32.1697398
  33.3087972  30.4838135  31.0357476  34.3125295  30.6040871  30.0829078
  34.2840768  31.4412336  29.4006438  35.3339367  29.6779807  29.9987460
  36.1042236  29.7904540  29.2503699  35.3616406  28.6138170  30.8730950
  36.3773290  27.6891795  30.7930730  36.6619535  27.4648681  31.6924435
  34.3756031  28.4697091  31.8308152  34.3961337  27.6364715  32.5176576
  33.3588118  29.4028615  31.9058092  32.5840876  29.2983369  32.6515156
  31.1477393  30.6828173  28.9991861  31.1612428  31.5527955  28.1284367
  31.3496627  29.3935780  28.7471349  31.1593579  28.7040637  29.4601941
  31.8874839  28.9380044  27.4714378  31.4333369  29.4975298  26.6532625
  33.3987868  29.1705834  27.4132609  33.7524217  29.4188990  28.4139512
  33.8803468  28.2528726  27.0756118  33.7189715  30.2266115  26.5238019
  33.1036633  30.1816760  25.8143926  31.5765491  27.4607755  27.2573652
  32.4872356  26.6442773  27.1175980  30.2900823  27.1289364  27.2347634
  29.1963540  27.9697022  27.6401426  28.9199337  28.6510143  26.8354651
  29.4650949  28.5448056  28.5262201  28.1459314  26.9608851  27.9181168
  27.1615572  27.4250770  27.8578472  28.2892303  26.5421459  28.9142213
  28.3194231  25.9128979  26.8696530  27.9169051  26.3082861  25.9370510
  27.8960823  24.9263113  27.0581445  29.8440853  25.8182071  26.7793817
  30.3217872  25.0359166  27.3704759  30.2262775  25.6007657  25.3191806
  29.9344020  26.4385351  24.4660451  30.8789438  24.4763525  25.0443212
  31.1549664  23.8569746  25.7928409  31.2436535  24.1165328  23.6795756
  30.5234141  24.5366889  22.9771071  32.6346504  24.6604534  23.3051158
  32.8571658  24.4089558  22.2673688  32.6717599  26.1750636  23.4518285
  33.6624492  26.5417946  23.1829322  32.4512919  26.4455971  24.4851660
  31.9261247  26.6216148  22.7918730  33.6251239  24.0780218  24.1611623
  33.6633946  24.6089485  24.9363146  31.2383427  22.6013677  23.5064521
  31.7496859  21.8738868  24.3583990  30.6593425  22.1382433  22.4032855
  30.1554612  22.6876242  21.7399731  30.7533746  20.7354419  22.0197804
  30.1597284  20.1221835  22.6975705  30.2078233  20.5285900  20.6052066
  29.5900980  21.3806108  20.3470496  31.0629305  20.5133864  19.9414433
  29.4434178  19.3118419  20.5172451  28.8152365  18.8664482  19.1253436
  27.3426559  18.8775704  19.3128662  29.3753596  19.7880974  18.1048507
  29.3039933  17.4458785  18.9730426  32.1993871  20.2550931  22.0997417
  32.4580094  19.1118264  22.4742504  33.1301853  21.1354713  21.7460543
  32.9537644  22.1080174  20.7026388  32.0747046  22.6969210  20.9644526
  32.7593779  21.5548274  19.7837842  34.1845209  22.9293298  20.6180856
  33.9948491  23.9542543  20.9369167  34.5842244  22.9328986  19.6040216
  35.1132048  22.2303772  21.5542813  35.1229956  22.8544021  22.4479234
  36.1276353  22.1353588  21.1669805  34.5514042  20.8471603  21.8917484
  34.8469989  20.0656610  21.1918114  34.8548335  20.3525125  23.3019296
  35.4640579  19.2974807  23.4762840  34.4262835  21.1205850  24.2978676
  33.9559345  21.9915416  24.0971044  34.6552630  20.7643220  25.6928210
  35.6796357  20.4158562  25.8256857  34.4554634  21.9829284  26.5970558
  35.2211865  22.7219002  26.3610728  33.4702848  22.4057619  26.4002435
  34.5507182  21.6247931  27.9644737  33.9070172  22.1320377  28.4252968
  33.7183502  19.6381823  26.1175362  34.0704174  18.8190366  26.9665326
  32.5307771  19.6076199  25.5221985  32.2938260  20.3057562  24.8318638
  31.8650666  18.8862536  25.7600217  12.1703066  15.2235731  35.2758324
  34.0917769  11.7410064  17.3087521  14.1425793  41.6104771  11.7456245
  42.6350931  22.0053545  32.8256073  26.9566987  14.4009433  19.0622722
  43.3098163  50.0475520  40.7648344  24.8105603  30.3847978  59.6120635
  24.1367302  30.6879675  60.2205593  25.1971425  31.1877058  59.2626092
  28.7762344  27.9633461  60.8860458  29.4713249  28.5840154  61.1047773
  29.1185494  27.1128813  61.1612836  22.8677212  28.0695213  59.7935552
  22.2951180  28.6885400  59.3406024  23.4410006  28.6194575  60.3275474
  26.0874472  28.3532363  60.9244134  27.0205145  28.2877925  61.1277009
  25.9997685  29.1888630  60.4658667  28.7162489  27.6698234  57.8848082
  28.6376120  27.3358097  58.7783839  29.5372156  28.1620001  57.8839554
  26.2866441  24.9866229  57.5058060  26.9902291  25.1916231  58.1215715
  25.5629089  25.5542991  57.7707143  28.1953138  25.4248758  59.5556520
  29.0298742  24.9929957  59.3733995  28.0337481  25.2530772  60.4833414
  29.6566993  31.8786305  60.0691472  28.8204306  32.2160992  60.3900747
  29.5171763  31.7435285  59.1318609  29.5305374  31.7233533  57.2689379
  28.6534840  31.6022334  56.9051626  30.0063127  30.9319611  57.0168268
  32.2760683  32.6597920  57.0706489  31.3692138  32.3631033  57.1469203
  32.5536664  32.3627738  56.2040776  31.0459467  29.5184855  57.2118469
  31.9078631  29.8439753  57.4714286  31.2309811  28.7316351  56.6991534
  31.9988910  26.7580898  60.4998178  31.9867580  27.7022738  60.6566448
  32.8912332  26.5751044  60.2057639  24.8105605   7.3910100  46.3365942
  24.1367303   7.6941797  46.9450899  25.1971427   8.1939181  45.9871399
  28.7762345   4.9695584  47.6105765  29.4713250   5.5902277  47.8293079
  29.1185495   4.1190935  47.8858143  22.8677214   5.0757336  46.5180858
  22.2951181   5.6947523  46.0651330  23.4410007   5.6256697  47.0520780
  26.0874474   5.3594486  47.6489441  27.0205147   5.2940047  47.8522316
  25.9997686   6.1950753  47.1903973  28.7162490   4.6760356  44.6093388
  28.6376122   4.3420220  45.5029146  29.5372157   5.1682124  44.6084861
  26.2866442   1.9928352  44.2303366  26.9902292   2.1978354  44.8461022
  25.5629091   2.5605113  44.4952450  28.1953139   2.4310881  46.2801827
  29.0298743   1.9992079  46.0979301  28.0337482   2.2592894  47.2078721
  36.8237414  12.9480532  56.3757003  37.4615824  12.8287279  55.6720343
  36.7058257  13.8961376  56.4344955  29.4913936  14.7543436  52.3015419
  28.9278802  14.6633373  51.5331707  29.3766331  13.9343341  52.7817911
  35.0713495  18.4214404  47.6129884  34.4201475  19.0068484  47.2263898
  35.8657858  18.9520599  47.6724921  28.9969122  15.5103541  48.0117018
  29.7699998  14.9632528  47.8729894  29.3494521  16.3747791  48.2231480
  31.3335400  11.6696207  45.6435468  31.5860921  11.1477729  44.8818931
  30.3959959  11.5062353  45.7462152  36.3778683  10.6731986  53.4510211
  37.1641772  10.2551409  53.1000628  36.6417387  11.5778078  53.6191860
  36.5488760  16.1104836  48.1498868  35.9134593  16.1839463  48.8619773
  36.2186167  16.6998435  47.4717947  31.0531689  13.5724313  47.8459843
  30.9367947  12.8969217  48.5140927  31.1633949  13.0856687  47.0291996
  33.3963230  13.0334460  51.5506532  33.0321437  12.5065081  52.2619454
  34.2530346  12.6432929  51.3773018  33.0368717   8.0624360  46.5467881
  33.2043119   8.9304596  46.9138352  32.8465886   8.2251642  45.6229170
  33.0157938  10.5182018  47.5314548  32.8957563  10.9639068  48.3700028
  32.3210526  10.8667335  46.9728086  30.7764830  23.2885659  51.1804679
  30.6988859  24.2393484  51.2593159  30.1726473  22.9431532  51.8379605
  38.7143004  10.9903491  48.3594882  39.6260860  11.2230878  48.1842579
  38.2052651  11.5740535  47.7969960  37.3212586  15.9729309  55.7508463
  36.6921449  16.1375023  55.0484531  36.9338248  16.3870919  56.5219427
  41.2001818  16.9083747  53.1052827  40.5152856  17.2882648  52.5549860
  41.2845667  17.5179074  53.8384775  32.8740548  15.7103717  53.0158548
  33.3378894  15.9891420  52.2263171  32.6097346  14.8087162  52.8331639
  31.8109434  11.8326870  49.8248113  32.5133477  12.2847913  50.2922040
  31.4790063  11.1910689  50.4528007  33.0503199  18.6467812  49.9010219
  32.9148873  19.4919348  50.3295066  33.5913011  18.8487090  49.1376152
  26.5032596  16.1643250  50.4738144  27.0157117  16.9586501  50.6243708
  27.1555309  15.4669541  50.4071745  28.3127481  19.2809007  52.5560897
  28.4894109  20.2026971  52.3681881  29.1084314  18.9667426  52.9855277
  29.4358796  20.7987180  58.5571239  29.9866221  20.6704244  57.7848233
  28.5970272  21.0982069  58.2066132  24.4681513  14.4931905  51.2497714
  25.3056735  14.9028913  51.0331422  24.6459781  13.5531347  51.2197908
  36.3645945  12.1606985  46.9381547  35.8492568  12.9311590  47.1769935
  36.0923253  11.4872121  47.5614609  33.9493056   7.0056686  51.9966786
  33.0934652   6.6163536  51.8172424  34.3620008   7.0848647  51.1366571
  41.3380219  14.9139340  48.8734721  40.5609662  14.5750499  48.4289883
  42.0171700  14.9191963  48.1989686  36.1532248  10.0334077  48.7641328
  35.8482384  10.3480227  49.6151472  37.1062690  10.1115497  48.8068661
  34.5978680  16.1924301  50.4134282  34.0700042  15.4577060  50.1007520
  34.0966183  16.9698977  50.1674251  39.5771526  14.3873321  55.5301329
  38.9195200  15.0772583  55.6181457  40.3811925  14.7769753  55.8735315
  38.3876985  12.7417694  53.5805270  38.9008867  13.3747686  54.0826980
  39.0378209  12.1418889  53.2148630  29.6566995   8.8848428  46.7936779
  28.8204307   9.2223115  47.1146054  29.5171764   8.7497408  45.8563916
  32.7431280  14.0104511  43.4169255  31.8358342  13.7793764  43.6160404
  33.2402312  13.2142130  43.6043237  35.6499359  22.7202018  46.3365942
  34.9761058  23.0233715  46.9450899  36.0365181  23.5231098  45.9871399
  35.6492863  11.6158565  50.9566291  36.3964682  12.1279962  50.6473413
  35.9184453  11.2942618  51.8170685  33.9219514  14.1117106  47.9393245
  33.0130733  13.8276139  48.0365715  33.9514597  14.5316184  47.0796552
  39.1538781  17.7223695  51.7084413  38.7001108  16.8814605  51.7649604
  38.5232748  18.3585094  52.0459193  38.0971701   8.6515681  52.9385080
  37.3594457   8.1393068  53.2695323  38.3498474   8.2116063  52.1268357
  37.5971720  19.5600192  52.6434231  37.8894695  20.1205249  51.9246597
  38.1070341  19.8528753  53.3987390  32.4704408  11.7245726  54.0403041
  32.5253017  10.7719563  53.9645517  31.6595610  11.8805166  54.5244339
  33.6195601  15.6525850  45.2781324  33.1815031  14.9361708  44.8186961
  34.3606042  15.8801964  44.7166415  30.4096768  10.3422786  51.7993420
  29.5964633  10.6416957  52.2058612  30.9055762   9.9478475  52.5167902
  32.5605345  20.3380543  53.7327684  32.5181524  20.5641389  52.8036216
  33.4768044  20.1043918  53.8813486  41.7368716  13.9283047  51.3357643
  41.5986615  14.1184643  50.4078832  41.3804935  14.6902429  51.7925694
  30.6771146  17.2143572  53.5289647  31.4711745  16.7193892  53.3272222
  29.9662839  16.6861435  53.1657353  35.4965991  19.5961668  57.8802015
  35.5503013  20.1652604  58.6479731  34.6280772  19.7663553  57.5156052
  26.9853910  11.3586654  49.6049400  26.0551498  11.2971109  49.8219362
  27.0811382  10.8362607  48.8086041  33.2542422  17.7872594  57.2087484
  33.1153508  17.4191379  58.0813422  32.4657018  18.3020234  57.0371442
  33.8490574  22.8881691  48.5513021  34.0242330  22.4169734  49.3658643
  33.1623362  23.5147457  48.7794281  34.8047637  17.1654197  54.5976322
  34.4697470  17.1254967  55.4933972  34.3051583  16.4998913  54.1246732
  37.7406829  14.5110231  44.8713382  37.1236000  13.7857059  44.7746434
  37.2723317  15.2719591  44.5280456  28.4151659  26.0371053  55.3252881
  28.6548258  26.6689578  56.0031899  27.5720856  25.6859093  55.6118240
  29.5305375   8.7295655  43.9934686  28.6534841   8.6084456  43.6296933
  30.0063128   7.9381734  43.7413575  32.9279521  21.8450176  57.7294385
  32.8549693  22.6505147  58.2413689  32.4856914  22.0442142  56.9042406
  32.7169301  21.0821946  51.2397206  31.9336823  21.6243626  51.3335431
  33.4162046  21.5995925  51.6391448  35.3878205  21.7437010  59.8852544
  36.1006177  22.3784475  59.8128445  34.8968233  21.8400876  59.0692545
  37.1095732  15.6488262  51.4569835  36.1752010  15.7689725  51.2874540
  37.2872400  14.7460729  51.1929845  40.4968283  11.4905582  51.9919869
  40.9628735  12.3233573  51.9180172  40.9475784  11.0250563  52.6965128
  38.5644514  17.8349403  48.9906021  38.8404358  17.7205998  49.8999895
  37.6949013  17.4366888  48.9518194  35.1998578  22.0835754  52.6338835
  35.3820973  21.2657410  53.0966587  36.0231564  22.3003446  52.1963725
  35.5340744  21.0103939  49.8953883  36.0628510  20.4996394  49.2824046
  35.7968963  20.6946469  50.7599417  28.8896492  22.0619056  52.6551659
  28.2206867  22.5465183  52.1715699  28.7509361  22.3088276  53.5695038
  33.0301760  24.0962799  59.2534318  33.5820068  24.2594421  60.0183403
  33.3707954  24.6867237  58.5814343  24.2584069  10.3237511  49.4347592
  24.5537510   9.4148189  49.3814645  23.3572105  10.3025250  49.1128594
  36.1670148  22.0444775  56.2398000  36.0421287  21.2434515  55.7308945
  36.8249239  22.5390968  55.7511970  38.2305056  19.8453795  57.8677550
  37.2835391  19.7259146  57.7955877  38.5787829  18.9576293  57.9503811
  35.2351489  19.6406511  54.0681902  35.0876452  18.7123218  54.2489472
  36.0604983  19.6626602  53.5838977  29.1013734   8.2924578  49.9262394
  29.4409806   8.8210499  49.2041003  29.5485854   8.6304984  50.7020961
  38.8385611  20.4635070  55.1546775  39.7632159  20.2577931  55.0171226
  38.6700914  20.2151471  56.0636116  31.0881881   6.7899200  48.1255687
  31.8090243   7.1680453  47.6219404  30.4647185   7.5088077  48.2290665
  35.2313004   7.4944349  49.0614019  35.4476618   8.3768987  48.7602848
  34.7507071   7.1030562  48.3319661  38.6280927  20.9820737  50.5108866
  38.8017805  20.4167160  49.7582719  39.1209819  21.7821632  50.3288356
  44.4820318  13.7457160  52.1299166  44.9251464  12.9964485  51.7318289
  43.6046829  13.7367297  51.7472898  39.6156100  20.2987502  47.6105765
  40.3107004  20.9194194  47.8293079  39.9579250  19.4482853  47.8858143
  41.5147523  17.7487207  49.1393096  42.0398847  18.0874480  48.4142416
  41.4269875  16.8134223  48.9556230  33.1988184  23.8159190  53.4988349
  32.7593174  23.3235569  54.1921205  33.9496301  23.2732158  53.2580424
  25.6780523  20.0070731  53.5012977  26.5038543  19.7074503  53.1211620
  25.3274575  19.2378354  53.9502765  30.6462056  19.3597200  55.5710650
  30.0242065  18.6967905  55.2712878  31.3166923  19.3858331  54.8884298
  30.2075563  17.9101123  49.0469111  30.3563683  18.5936587  48.3935784
  31.0142006  17.8906213  49.5618567  27.9628196  13.9366301  50.0530180
  27.7174238  13.0328631  50.2510390  28.1324110  13.9383451  49.1109658
  27.2323843   9.6694658  47.5516341  26.5393088   9.7439013  46.8956377
  26.9875595   8.9055002  48.0737858  33.7070968  20.4049253  46.5180858
  33.1344935  21.0239440  46.0651330  34.2803762  20.9548615  47.0520780
  36.9268228  20.6886403  47.6489441  37.8598901  20.6231965  47.8522316
  36.8391441  21.5242670  47.1903973  39.5556245  20.0052274  44.6093388
  39.4769876  19.6712137  45.5029146  40.3765911  20.4974042  44.6084861
  34.0917767  11.7410066  43.8596911  35.0376871  11.6116274  43.9285329
  33.7132012  11.0024728  44.3366339  32.2760684   9.6660042  43.7951796
  31.3692139   9.3693155  43.8714510  32.5536665   9.3689861  42.9286082
  33.8922750   4.2096932  49.9496037  33.0823478   3.8644017  50.3251283
  34.5807167   3.9004476  50.5383649  31.0459468   6.5246978  43.9363775
  31.9078632   6.8501876  44.1959593  31.2309813   5.7378474  43.4236841
  39.1992105   5.3975504  51.0798998  38.6190774   6.0560308  50.6977051
  38.9328038   4.5752849  50.6686416  37.9816983   7.5575595  50.1355347
  37.0942838   7.8425245  49.9175541  38.3970972   7.3969358  49.2882623
  25.9901233  22.1383346  55.2226791  25.8555701  21.3783747  54.6564789
  25.5733296  22.8624246  54.7555580  37.1260196  17.3220269  44.2303366
  37.8296047  17.5270272  44.8461022  36.4022845  17.8897031  44.4952450
  37.9558007  13.0730130  50.3505637  37.8993208  13.5298682  49.5113269
  38.5086349  12.3120815  50.1728479  29.1470359  23.0352663  55.4345234
  29.0302743  23.9798095  55.3323924  28.3262806  22.7326224  55.8231033
  39.0346894  17.7602798  46.2801827  39.8692498  17.3283997  46.0979301
  38.8731237  17.5884812  47.2078721  38.6892786  14.2634912  47.6458166
  38.6341590  14.0979183  46.7046610  38.0638841  14.9710945  47.8020356
  31.9988912   3.7643021  47.2243484  31.9867581   4.7084861  47.3811755
  32.8912333   3.5813166  46.9302945  30.1724873  23.6880925  58.6501162
  31.0752120  23.7204535  58.9667657  29.9462244  22.7581376  58.6647498
  31.9278475  22.4411911  55.3111241  30.9774106  22.4413773  55.1975613
  32.2310962  21.6944646  54.7947276  40.3307691  30.0835354  52.3015419
  39.7672556  29.9925291  51.5331707  40.2160086  29.2635258  52.7817911
  37.8772123  31.5786546  55.1399639  38.6693415  31.2377370  54.7245939
  38.1168773  31.6881521  56.0601793  45.9107250  33.7506322  47.6129884
  45.2595229  34.3360402  47.2263898  46.7051612  34.2812517  47.6724921
  39.8362877  30.8395459  48.0117018  40.6093753  30.2924446  47.8729894
  40.1888276  31.7039708  48.2231480  42.1729155  26.9988125  45.6435468
  42.4254675  26.4769646  44.8818931  41.2353714  26.8354270  45.7462152
  47.2172437  26.0023903  53.4510211  48.0035527  25.5843327  53.1000628
  47.4811142  26.9069996  53.6191860  47.3882515  31.4396754  48.1498868
  46.7528348  31.5131380  48.8619773  47.0579921  32.0290353  47.4717947
  41.8925443  28.9016231  47.8459843  41.7761701  28.2261134  48.5140927
  42.0027703  28.4148605  47.0291996  44.2356984  28.3626378  51.5506532
  43.8715192  27.8356999  52.2619454  45.0924100  27.9724847  51.3773018
  43.8762471  23.3916278  46.5467881  44.0436874  24.2596514  46.9138352
  43.6859640  23.5543559  45.6229170  40.0850286  28.3047054  54.2470416
  39.1600782  28.1723268  54.4548107  40.3334699  29.0841273  54.7440358
  43.8551692  25.8473935  47.5314548  43.7351317  26.2930986  48.3700028
  43.1604281  26.1959253  46.9728086  37.4459097  27.9480327  55.0814205
  37.5751478  28.2014806  55.9953616  36.7656548  28.5408035  54.7618860
  49.5536758  26.3195408  48.3594882  50.4654614  26.5522795  48.1842579
  49.0446405  26.9032453  47.7969960  43.7134302  31.0395635  53.0158548
  44.1772648  31.3183338  52.2263171  43.4491101  30.1379080  52.8331639
  42.6503189  27.1618787  49.8248113  43.3527232  27.6139831  50.2922040
  42.3183817  26.5202606  50.4528007  36.3928522  25.4202340  55.1265247
  35.6027576  25.6759869  54.6505358  36.8839770  26.2350678  55.2317287
  38.3443268  25.7846919  52.0848724  37.5474431  25.8965614  52.6032219
  38.1168860  26.1233571  51.2189614  34.6766225  25.6732830  57.5580238
  34.9274264  26.5579840  57.8237814  35.2125774  25.4937432  56.7855330
  43.8896953  33.9759730  49.9010219  43.7542628  34.8211266  50.3295066
  44.4306766  34.1779008  49.1376152  37.3426351  31.4935168  50.4738144
  37.8550871  32.2878418  50.6243708  37.9949063  30.7961458  50.4071745
  39.1521235  34.6100924  52.5560897  39.3287864  35.5318889  52.3681881
  39.9478069  34.2959344  52.9855277  35.3075267  29.8223822  51.2497714
  36.1450489  30.2320831  51.0331422  35.4853535  28.8823264  51.2197908
  47.2039699  27.4898903  46.9381547  46.6886323  28.2603508  47.1769935
  46.9317008  26.8164039  47.5614609  44.7886810  22.3348604  51.9966786
  43.9328407  21.9455454  51.8172424  45.2013762  22.4140565  51.1366571
  42.5628843  19.9533677  55.4024527  43.4281840  19.7576485  55.0430417
  42.6306352  19.7244029  56.3293884  52.1773974  30.2431258  48.8734721
  51.4003416  29.9042417  48.4289883  52.8565455  30.2483881  48.1989686
  46.9926003  25.3625995  48.7641328  46.6876138  25.6772144  49.6151472
  47.9456445  25.4407415  48.8068661  45.4372434  31.5216218  50.4134282
  44.9093796  30.7868978  50.1007520  44.9359937  32.2990895  50.1674251
  40.1691162  22.1835885  52.7740894  40.7434914  21.9611066  52.0414087
  40.7562145  22.2524579  53.5269495  40.4960749  24.2140346  46.7936779
  39.6598061  24.5515032  47.1146054  40.3565519  24.0789325  45.8563916
  42.4713830  19.0577134  51.5015963  41.8178242  18.7426151  50.8772578
  42.4294304  18.4352874  52.2275786  43.5825035  29.3396429  43.4169255
  42.6752096  29.1085682  43.6160404  44.0796067  28.5434048  43.6043237
  46.4893114  38.0493936  46.3365942  45.8154812  38.3525633  46.9450899
  46.8758935  38.8523016  45.9871399  45.7051570  25.5459067  55.8263611
  44.7874132  25.7674014  55.6685299  46.1211714  25.6205378  54.9675318
  46.4886618  26.9450483  50.9566291  47.2358437  27.4571880  50.6473413
  46.7578207  26.6234536  51.8170685  44.7613268  29.4409024  47.9393245
  43.8524487  29.1568056  48.0365715  44.7908352  29.8608102  47.0796552
  48.9365455  23.9807599  52.9385080  48.1988212  23.4684985  53.2695323
  49.1892229  23.5407981  52.1268357  35.3301438  27.1614538  51.9208448
  35.1325838  26.5683898  51.1959514  34.7748102  26.8566748  52.6384386
  43.3098162  27.0537644  54.0403041  43.3646772  26.1011481  53.9645517
  42.4989364  27.2097083  54.5244339  44.4589356  30.9817767  45.2781324
  44.0208786  30.2653626  44.8186961  45.1999797  31.2093882  44.7166415
  41.2490522  25.6714704  51.7993420  40.4358388  25.9708874  52.2058612
  41.7449516  25.2770393  52.5167902  52.5762471  29.2574964  51.3357643
  52.4380369  29.4476560  50.4078832  52.2198689  30.0194347  51.7925694
  40.7404597  23.2433059  57.4154655  41.3803976  23.1021818  56.7177618
  39.9082127  22.9567573  57.0393257  41.5164901  32.5435490  53.5289647
  42.3105499  32.0485810  53.3272222  40.8056593  32.0153353  53.1657353
  37.8247664  26.6878572  49.6049400  36.8945252  26.6263027  49.8219362
  37.9205136  26.1654524  48.8086041  37.7433213  23.2133384  52.1927641
  38.0040031  24.1278718  52.0836802  38.5650386  22.7457827  52.3424254
  39.2158139  24.6271142  59.3626466  39.8881192  24.4188504  58.7139115
  38.3887925  24.4293228  58.9231698  44.6884329  38.2173608  48.5513021
  44.8636084  37.7461651  49.3658643  44.0017117  38.8439374  48.7794281
  48.5800583  29.8402149  44.8713382  47.9629754  29.1148977  44.7746434
  48.1117072  30.6011509  44.5280456  40.3699129  24.0587573  43.9934686
  39.4928596  23.9376374  43.6296933  40.8456882  23.2673651  43.7413575
  31.8901270  28.8464733  54.0876193  32.5772309  28.5326463  53.4997208
  31.7349398  29.7506097  53.8143444  36.6935992  23.7354929  58.5161217
  36.6094180  23.1280599  57.7811627  35.8718698  24.2263948  58.5170713
  46.8659706  22.2208493  53.8831412  47.3628405  21.4678455  53.5632482
  46.0946687  22.2572810  53.3174621  47.9489486  30.9780180  51.4569835
  47.0145765  31.0981643  51.2874540  48.1266155  30.0752647  51.1929845
  43.4494674  24.3625876  53.6103096  43.0792462  23.8096916  54.2984002
  43.9453767  23.7584009  53.0578096  51.3362038  26.8197499  51.9919869
  51.8022490  27.6525491  51.9180172  51.7869538  26.3542481  52.6965128
  49.4038269  33.1641321  48.9906021  49.6798113  33.0497915  49.8999895
  48.5342767  32.7658806  48.9518194  46.3734498  36.3395857  49.8953883
  46.9022265  35.8288311  49.2824046  46.6362718  36.0238387  50.7599417
  31.4669246  26.9265326  56.3593660  31.5053345  26.3928917  57.1530778
  30.9609538  26.4000532  55.7404637  38.8460008  21.7729867  59.8556202
  38.9101334  22.6344698  59.4433600  38.7827128  21.1603868  59.1228561
  35.0977823  25.6529428  49.4347592  35.3931264  24.7440107  49.3814645
  34.1965859  25.6317168  49.1128594  38.6272070  23.7285425  55.4175140
  37.9058656  24.3421393  55.2782613  39.4165326  24.2643190  55.3391786
  36.8265665  23.3343526  49.5586917  36.4978371  22.4540905  49.3762023
  37.1805036  23.2791195  50.4463306  39.9407488  23.6216496  49.9262394
  40.2803560  24.1502417  49.2041003  40.3879608  23.9596902  50.7020961
  41.9275635  22.1191117  48.1255687  42.6483998  22.4972370  47.6219404
  41.3040939  22.8379994  48.2290665  46.0706758  22.8236266  49.0614019
  46.2870372  23.7060904  48.7602848  45.5900825  22.4322480  48.3319661
  40.8105979  25.7821980  55.6384764  40.6650560  26.0962283  56.5309046
  40.3331183  26.4006880  55.0855663  42.6702362  22.7724528  55.6865654
  42.6563931  21.8765621  55.3497952  43.3874790  22.7795191  56.3203940
  35.2851642  28.3227324  58.5772425  34.7405110  29.0987132  58.7092700
  36.1630991  28.6698128  58.4191547  42.0739258  21.6538908  50.9553224
  42.1955169  20.7255554  51.1544111  41.7841301  21.6677594  50.0431539
  44.9430449  19.3393818  54.0919944  44.9652145  19.4033151  53.1371923
  45.3598508  18.4998327  54.2860450  50.4549854  35.6279419  47.6105765
  51.1500759  36.2486112  47.8293079  50.7973004  34.7774771  47.8858143
  52.3541277  33.0779125  49.1393096  52.8792601  33.4166398  48.4142416
  52.2663630  32.1426140  48.9556230  36.5174277  35.3362649  53.5012977
  37.3432297  35.0366421  53.1211620  36.1668329  34.5670271  53.9502765
  34.7182882  33.2548975  54.4601910  33.8814790  32.8271150  54.2785912
  34.6906528  33.4481419  55.3972702  41.0469317  33.2393041  49.0469111
  41.1957438  33.9228505  48.3935784  41.8535761  33.2198131  49.5618567
  38.8021950  29.2658218  50.0530180  38.5567992  28.3620548  50.2510390
  38.9717865  29.2675369  49.1109658  38.0717598  24.9986576  47.5516341
  37.3786843  25.0730931  46.8956377  37.8269350  24.2346919  48.0737858
  44.5464723  35.7341171  46.5180858  43.9738690  36.3531358  46.0651330
  45.1197516  36.2840533  47.0520780  47.7661982  36.0178321  47.6489441
  48.6992656  35.9523883  47.8522316  47.6785195  36.8534588  47.1903973
  50.3949999  35.3344191  44.6093388  50.3163631  35.0004055  45.5029146
  51.2159666  35.8265959  44.6084861  44.9311521  27.0701984  43.8596911
  45.8770626  26.9408192  43.9285329  44.5525766  26.3316646  44.3366339
  43.1154438  24.9951960  43.7951796  42.2085894  24.6985073  43.8714510
  43.3930419  24.6981778  42.9286082  34.0332379  26.3158324  54.2450842
  33.7135163  25.4623632  53.9525216  33.4865807  26.5306902  55.0008810
  44.7316504  19.5388850  49.9496037  43.9217232  19.1935935  50.3251283
  45.4200921  19.2296394  50.5383649  46.6607052  18.6166897  51.5720334
  47.2138091  19.0362350  52.2310357  46.8977139  17.6902645  51.6143290
  41.8853223  21.8538895  43.9363775  42.7472387  22.1793794  44.1959593
  42.0703567  21.0670391  43.4236841  33.9020639  29.9361235  56.2143964
  33.2084110  29.5215188  55.7013918  34.6493630  29.9781772  55.6177383
  50.0385859  20.7267422  51.0798998  49.4584529  21.3852226  50.6977051
  49.7721792  19.9044766  50.6686416  35.8157381  29.8679489  54.0909979
  35.7928069  29.9667176  53.1391862  36.1258018  30.7144640  54.4127145
  48.8210737  22.8867512  50.1355347  47.9336592  23.1717163  49.9175541
  49.2364727  22.7261276  49.2882623  47.9653951  32.6512187  44.2303366
  48.6689801  32.8562189  44.8461022  47.2416600  33.2188949  44.4952450
  48.7951761  28.4022048  50.3505637  48.7386963  28.8590600  49.5113269
  49.3480104  27.6412733  50.1728479  49.8740648  33.0894716  46.2801827
  50.7086252  32.6575915  46.0979301  49.7124991  32.9176730  47.2078721
  49.5286541  29.5926829  47.6458166  49.4735344  29.4271101  46.7046610
  48.9032596  30.3002862  47.8020356  34.3179056  24.8294894  61.4719588
  34.9637919  24.3193848  61.9606813  34.1096207  25.5663575  62.0463013
  42.8382666  19.0934938  47.2243484  42.8261336  20.0376778  47.3811755
  43.7306088  18.9105084  46.9302945  51.3354504  39.5432263  46.7936779
  50.4991816  39.8806950  47.1146054  51.1959273  39.4081243  45.8563916
  51.2092884  39.3879491  43.9934686  50.3322350  39.2668292  43.6296933
  51.6850637  38.5965569  43.7413575  53.9548193  40.3243878  43.7951796
  53.0479648  40.0276991  43.8714510  54.2324174  40.0273696  42.9286082
  52.7246977  37.1830813  43.9363775  53.5866141  37.5085711  44.1959593
  52.9097322  36.3962309  43.4236841  53.6776420  34.4226856  47.2243484
  53.6655090  35.3668696  47.3811755  54.5699842  34.2397001  46.9302945
  30.7764831   0.2947782  37.9049986  30.6988861   1.2455607  37.9838466
  30.1726475  -0.0506346  38.5624912  28.4151661   3.0433176  42.0498188
  28.6548259   3.6751700  42.7277206  27.5720857   2.6921216  42.3363547
  28.8896493  -0.9318822  39.3796966  28.2206868  -0.4472694  38.8961006
  28.7509363  -0.6849601  40.2940345  33.0301762   1.1024922  45.9779624
  33.5820070   1.2656543  46.7428710  33.3707955   1.6929360  45.3059649
  25.9901235  -0.8554532  41.9472098  25.8555703  -1.6154131  41.3810096
  25.5733297  -0.1313632  41.4800887  29.1470361   0.0414785  42.1590541
  29.0302745   0.9860218  42.0569231  28.3262807  -0.2611653  42.5476340
  30.1724875   0.6943047  45.3746469  31.0752121   0.7266657  45.6912964
  29.9462245  -0.2356502  45.3892805  44.4720876   5.2362000  43.0363835
  44.1339388   5.1203065  42.1484369  45.3410645   4.8353165  43.0164841
  40.3307692   7.0897477  39.0260726  39.7672557   6.9987414  38.2577013
  40.2160087   6.2697381  39.5063218  37.8772124   8.5848668  41.8644946
  38.6693416   8.2439493  41.4491245  38.1168774   8.6943643  42.7847099
  45.9107251  10.7568444  34.3375190  45.2595231  11.3422525  33.9509204
  46.7051614  11.2874639  34.3970228  39.8362878   7.8457581  34.7362325
  40.6093754   7.2986569  34.5975201  40.1888277   8.7101831  34.9476786
  41.6747921   9.1733964  47.9429224  41.3837787  10.0779595  47.8275890
  42.3104905   9.2150491  48.6573294  42.6004127   6.5510812  44.5330584
  43.1967700   6.3266835  43.8187547  42.6579099   5.8095558  45.1356032
  47.3882516   8.4458876  34.8744175  46.7528349   8.5193503  35.5865079
  47.0579922   9.0352475  34.1963254  41.8925445   5.9078354  34.5705150
  41.7761703   5.2323257  35.2386234  42.0027705   5.4210727  33.7537303
  44.2356986   5.3688501  38.2751839  43.8715193   4.8419122  38.9864760
  45.0924101   4.9786970  38.1018324  46.6337806   8.8595379  44.9379018
  46.3338529   9.7620418  44.8294825  46.2888865   8.5927562  45.7900171
  40.0850287   5.3109176  40.9715722  39.1600784   5.1785390  41.1793414
  40.3334700   6.0903395  41.4685665  37.4459098   4.9542450  41.8059511
  37.5751479   5.2076929  42.7198923  36.7656550   5.5470158  41.4864166
  41.6158586  15.6239700  37.9049986  41.5382615  16.5747525  37.9838466
  41.0120229  15.2785572  38.5624912  48.1606342   8.3083349  42.4753770
  47.5315204   8.4729064  41.7729838  47.7732004   8.7224959  43.2464734
  52.0395574   9.2437787  39.8298134  51.3546612   9.6236689  39.2795167
  52.1239423   9.8533114  40.5630081  43.7134304   8.0457758  39.7403855
  44.1772649   8.3245461  38.9508477  43.4491102   7.1441202  39.5576946
  40.6058385   7.5929239  42.6783618  41.1759742   8.0216507  42.0401103
  41.1966497   7.3111824  43.3767804  36.3928524   2.4264463  41.8510554
  35.6027578   2.6821991  41.3750664  36.8839771   3.2412800  41.9562594
  38.3443269   2.7909042  38.8094030  37.5474432   2.9027736  39.3277526
  38.1168861   3.1295694  37.9434921  44.1748937   9.3153745  46.7576545
  44.2393369   9.7774152  47.5934717  43.4659861   8.6851110  46.8858855
  34.6766227   2.6794953  44.2825544  34.9274265   3.5641963  44.5483120
  35.2125775   2.4999555  43.5100636  43.8896954  10.9821853  36.6255525
  43.7542629  11.8273388  37.0540373  44.4306767  11.1841130  35.8621459
  37.3426352   8.4997291  37.1983450  37.8550872   9.2940541  37.3489015
  37.9949065   7.8023581  37.1317052  39.1521237  11.6163047  39.2806204
  39.3287865  12.5381012  39.0927187  39.9478070  11.3021466  39.7100583
  38.4373593   3.6627679  49.1568367  38.3227108   2.7612936  49.4575466
  37.5818111   3.9091376  48.8053183  40.2752552  13.1341221  45.2816546
  40.8259977  13.0058284  44.5093540  39.4364028  13.4336110  44.9311439
  44.0719723   9.3992348  49.6260777  44.6048060   8.6380637  49.3960085
  43.5433804   9.1066000  50.3684931  35.3075269   6.8285945  37.9743021
  36.1450491   7.2382953  37.7576729  35.4853536   5.8885387  37.9443215
  45.4372436   8.5278341  37.1379589  44.9093797   7.7931101  36.8252826
  44.9359938   9.3053017  36.8919557  50.4165282   6.7227361  42.2546635
  49.7588956   7.4126623  42.3426764  51.2205681   7.1123793  42.5980622
  43.5825036   6.3458551  30.1414562  42.6752098   6.1147805  30.3405711
  44.0796068   5.5496170  30.3288544  46.4893115  15.0556058  33.0611248
  45.8154814  15.3587755  33.6696206  46.8758937  15.8585139  32.7116705
  44.7613269   6.4471146  34.6638552  43.8524489   6.1630179  34.7611022
  44.7908353   6.8670225  33.8041859  49.9932537  10.0577736  38.4329720
  49.5394864   9.2168645  38.4894910  49.3626503  10.6939134  38.7704500
  48.4365476  11.8954232  39.3679538  48.7288450  12.4559289  38.6491903
  48.9464097  12.1882793  40.1232697  35.3301440   4.1676660  38.6453754
  35.1325840   3.5746021  37.9204821  34.7748104   3.8628870  39.3629693
  44.4589357   7.9879890  32.0026631  44.0208787   7.2715749  31.5432268
  45.1999798   8.2156005  31.4411722  43.3999101  12.6734583  40.4572991
  43.3575280  12.8995430  39.5281523  44.3161800  12.4397958  40.6058792
  41.5164902   9.5497612  40.2534954  42.3105500   9.0547933  40.0517529
  40.8056594   9.0215476  39.8902659  46.3359746  11.9315708  44.6047321
  46.3896769  12.5006644  45.3725037  45.4674528  12.1017593  44.2401358
  37.8247665   3.6940694  36.3294706  36.8945254   3.6325150  36.5464669
  37.9205137   3.1716647  35.5331348  45.2947846   6.0975970  46.1634253
  46.2239906   6.2487130  45.9903221  44.8738876   6.1859991  45.3082900
  44.0936178  10.1226634  43.9332791  43.9547264   9.7545419  44.8058729
  43.3050774  10.6374274  43.7616749  44.6884330  15.2235731  35.2758327
  44.8636086  14.7523774  36.0903950  44.0017118  15.8501497  35.5039588
  45.6441393   9.5008237  41.3221629  45.3091226   9.4609007  42.2179279
  45.1445339   8.8352953  40.8492039  39.6185637   4.9075867  46.8474210
  39.4805435   4.1756106  47.4485749  40.5290561   4.8184767  46.5658398
  48.5800585   6.8464271  31.5958688  47.9629755   6.1211100  31.4991741
  48.1117073   7.6073632  31.2525763  42.2467938   4.6195826  46.3357889
  42.9567556   3.9789019  46.2944508  42.2037246   4.8708721  47.2584070
  39.2545415  18.3725094  42.0498188  39.4942013  19.0043618  42.7277206
  38.4114612  18.0213134  42.3363547  31.8901271   5.8526855  40.8121500
  32.5772311   5.5388585  40.2242515  31.7349399   6.7568220  40.5388751
  43.7673277  14.1804216  44.4539692  43.6943449  14.9859188  44.9658996
  43.3250670  14.3796182  43.6287713  43.5563057  13.4175986  37.9642513
  42.7730579  13.9597666  38.0580738  44.2555802  13.9349966  38.3636754
  46.2271961  14.0791050  46.6097850  46.9399933  14.7138515  46.5373752
  45.7361989  14.1754916  45.7937852  47.9489488   7.9842303  38.1815142
  47.0145766   8.1043765  38.0119846  48.1266156   7.0814770  37.9175152
  41.2783874  11.8285494  47.4303421  41.9793334  12.4621977  47.5832815
  40.8078989  12.1700225  46.6699060  49.4038270  10.1703443  35.7151328
  49.6798114  10.0560038  36.6245202  48.5342769   9.7720928  35.6763501
  46.0392334  14.4189794  39.3584142  46.2214729  13.6011450  39.8211894
  46.8625320  14.6357486  38.9209032  46.3734499  13.3457979  36.6199190
  46.9022266  12.8350434  36.0069352  46.6362719  13.0300510  37.4844723
  36.8751592  11.3621849  44.3634524  37.4605029  10.6165537  44.4962428
  36.6776431  11.6725805  45.2471188  39.7290247  14.3973096  39.3796966
  39.0600623  14.8819224  38.8961006  39.5903117  14.6442316  40.2940345
  31.4669247   3.9327449  43.0838967  31.5053346   3.3991040  43.8776085
  30.9609540   3.4062654  42.4649944  43.8695516  16.4316840  45.9779624
  44.4213824  16.5948461  46.7428710  44.2101709  17.0221277  45.3059649
  35.0977825   2.6591551  36.1592898  35.3931266   1.7502229  36.1059952
  34.1965860   2.6379290  35.8373901  47.0063903  14.3798815  42.9643307
  46.8815043  13.5788555  42.4554252  47.6642994  14.8745008  42.4757277
  49.0698812  12.1807835  44.5922857  48.1229147  12.0613186  44.5201183
  49.4181585  11.2930333  44.6749118  46.0745245  11.9760551  40.7927209
  45.9270207  11.0477259  40.9734779  46.8998738  11.9980642  40.3084284
  49.6779367  12.7989110  41.8792082  50.6025914  12.5931971  41.7416533
  49.5094670  12.5505511  42.7881423  49.4674683  13.3174778  37.2354173
  49.6411561  12.7521200  36.4828026  49.9603574  14.1175672  37.0533663
  35.2851643   5.3289447  45.3017732  34.7405111   6.1049255  45.4338006
  36.1630993   5.6760251  45.1436853  50.4549856  12.6341542  34.3351071
  51.1500760  13.2548235  34.5538386  50.7973006  11.7836893  34.6103449
  36.0717665   4.4559343  48.1947889  35.3299401   4.6041978  48.7812519
  35.7510409   4.7167608  47.3314638  52.3541279  10.0841247  35.8638402
  52.8792603  10.4228520  35.1387722  52.2663631   9.1488263  35.6801537
  44.0161327  13.9975321  47.9928279  44.3248454  13.7524468  48.8650978
  44.8136809  14.2021960  47.5047149  44.0381939  16.1513231  40.2233655
  43.5986930  15.6589609  40.9166512  44.7890056  15.6086198  39.9825731
  36.5174278  12.3424772  40.2258283  37.3432298  12.0428543  39.8456927
  36.1668330  11.5732394  40.6748072  41.4855812  11.6951240  42.2955957
  40.8635821  11.0321945  41.9958185  42.1560678  11.7212372  41.6129605
  34.7182883  10.2611098  41.1847217  33.8814792   9.8333272  41.0031218
  34.6906529  10.4543541  42.1218008  41.0469318  10.2455163  35.7714418
  41.1957439  10.9290628  35.1181090  41.8535762  10.2260253  36.2863873
  38.8021951   6.2720341  36.7775486  38.5567993   5.3682671  36.9755697
  38.9717866   6.2737491  35.8354964  44.5464724  12.7403294  33.2426165
  43.9738691  13.3593481  32.7896637  45.1197518  13.2902655  33.7766087
  47.7661984  13.0240444  34.3734747  48.6992657  12.9586005  34.5767623
  47.6785197  13.8596711  33.9149280  50.3950000  12.3406314  31.3338695
  50.3163632  12.0066178  32.2274453  51.2159667  12.8328082  31.3330167
  34.0332380   3.3220446  40.9696149  33.7135164   2.4685754  40.6770523
  33.4865808   3.5369024  41.7254116  37.8112288   6.0382887  44.6865656
  38.0298297   6.9699995  44.7053689  38.2238061   5.6790862  45.4720459
  33.9020640   6.9423358  42.9389271  33.2084111   6.5277310  42.4259225
  34.6493631   6.9843894  42.3422690  35.8157383   6.8741611  40.8155286
  35.7928071   6.9729299  39.8637169  36.1258019   7.7206762  41.1372452
  38.4744760   8.9317766  44.9301900  39.4288014   8.9001709  44.8631832
  38.2757284   8.4708390  45.7452126  39.0644143   7.5018883  47.4972698
  39.8837032   7.9962961  47.5207535  39.3380950   6.5850851  47.4690265
  36.8294989  14.4737386  41.9472098  36.6949457  13.7137787  41.3810096
  36.4127051  15.1978286  41.4800887  47.9653952   9.6574309  30.9548673
  48.6689802   9.8624312  31.5706329  47.2416601  10.2251071  31.2197757
  39.9864115  15.3706703  42.1590541  39.8696499  16.3152135  42.0569231
  39.1656561  15.0680265  42.5476340  49.8740650  10.0956839  33.0047133
  50.7086254   9.6638037  32.8224608  49.7124993   9.9238852  33.9324028
  49.5286542   6.5988952  34.3703473  49.4735346   6.4333223  33.4291917
  48.9032597   7.3064985  34.5265662  34.3179057   1.8357016  48.1964895
  34.9637920   1.3255970  48.6852120  34.1096208   2.5725698  48.7708320
  41.0118629  16.0234965  45.3746469  41.9145876  16.0558575  45.6912964
  40.7855999  15.0935416  45.3892805  42.7672231  14.7765951  42.0356548
  41.8167862  14.7767813  41.9220920  43.0704717  14.0298686  41.5192582
  55.3114631  20.5653918  43.0363835  54.9733142  20.4494983  42.1484369
  56.1804399  20.1645083  43.0164841  51.1701447  22.4189394  39.0260726
  50.6066312  22.3279331  38.2577013  51.0553842  21.5989299  39.5063218
  48.7165879  23.9140586  41.8644946  49.5087171  23.5731411  41.4491245
  48.9562529  24.0235561  42.7847099  50.6756633  23.1749499  34.7362325
  51.4487509  22.6278486  34.5975201  51.0282031  24.0393748  34.9476786
  52.5141675  24.5025881  47.9429224  52.2231541  25.4071512  47.8275890
  53.1498659  24.5442409  48.6573294  53.4397882  21.8802730  44.5330584
  54.0361454  21.6558752  43.8187547  53.4972853  21.1387475  45.1356032
  53.0122910  19.3342165  32.3680775  53.2648431  18.8123687  31.6064238
  52.0747469  19.1708311  32.4707458  52.7319199  21.2370271  34.5705150
  52.6155457  20.5615175  35.2386234  52.8421459  20.7502645  33.7537303
  55.0750740  20.6980418  38.2751839  54.7108947  20.1711039  38.9864760
  55.9317856  20.3078887  38.1018324  54.7156227  15.7270318  33.2713187
  54.8830629  16.5950554  33.6383659  54.5253396  15.8897600  32.3474477
  50.9244042  20.6401094  40.9715722  49.9994538  20.5077308  41.1793414
  51.1728455  21.4195313  41.4685665  54.6945448  18.1827976  34.2559854
  54.5745073  18.6285026  35.0945335  53.9998036  18.5313293  33.6973392
  48.2852853  20.2834367  41.8059511  48.4145234  20.5368846  42.7198923
  47.6050304  20.8762075  41.4864166  52.4552340  30.9531617  37.9049986
  52.3776370  31.9039442  37.9838466  51.8513984  30.6077490  38.5624912
  54.5528058  23.3749675  39.7403855  55.0166404  23.6537378  38.9508477
  54.2884856  22.4733120  39.5576946  51.4452139  22.9221157  42.6783618
  52.0153496  23.3508425  42.0401103  52.0360251  22.6403741  43.3767804
  53.4896944  19.4972828  36.5493420  54.1920988  19.9493871  37.0167346
  53.1577573  18.8556646  37.1773313  47.2322278  17.7556380  41.8510554
  46.4421332  18.0113909  41.3750664  47.7233526  18.5704718  41.9562594
  49.1837024  18.1200960  38.8094030  48.3868187  18.2319654  39.3277526
  48.9562616  18.4587612  37.9434921  55.0142691  24.6445663  46.7576545
  55.0787124  25.1066070  47.5934717  54.3053615  24.0143028  46.8858855
  45.5159981  18.0086871  44.2825544  45.7668020  18.8933881  44.5483120
  46.0519530  17.8291472  43.5100636  54.7290709  26.3113770  36.6255525
  54.5936384  27.1565306  37.0540373  55.2700521  26.5133048  35.8621459
  48.1820106  23.8289208  37.1983450  48.6944627  24.6232459  37.3489015
  48.8342819  23.1315499  37.1317052  49.9914991  26.9454965  39.2806204
  50.1681619  27.8672929  39.0927187  50.7871825  26.6313384  39.7100583
  49.2767348  18.9919596  49.1568367  49.1620863  18.0904854  49.4575466
  48.4211865  19.2383293  48.8053183  51.1146306  28.4633138  45.2816546
  51.6653732  28.3350202  44.5093540  50.2757782  28.7628027  44.9311439
  54.9113478  24.7284266  49.6260777  55.4441814  23.9672554  49.3960085
  54.3827559  24.4357918  50.3684931  46.1469023  22.1577863  37.9743021
  46.9844245  22.5674871  37.7576729  46.3247291  21.2177305  37.9443215
  55.6280566  14.6702644  38.7212092  54.7722163  14.2809494  38.5417731
  56.0407518  14.7494605  37.8611878  53.4022599  12.2887717  42.1269834
  54.2675596  12.0930526  41.7675723  53.4700108  12.0598069  43.0539190
  56.2766190  23.8570259  37.1379589  55.7487552  23.1223018  36.8252826
  55.7753693  24.6344935  36.8919557  51.0084918  14.5189925  39.4986201
  51.5828670  14.2965106  38.7659393  51.5955900  14.5878619  40.2514802
  51.3354505  16.5494386  33.5182086  50.4991817  16.8869072  33.8391361
  51.1959275  16.4143366  32.5809223  53.3107586  11.3931174  38.2261270
  52.6571998  11.0780191  37.6017885  53.2688060  10.7706914  38.9521093
  54.4218790  21.6750469  30.1414562  53.5145852  21.4439722  30.3405711
  54.9189822  20.8788088  30.3288544  55.6007024  21.7763064  34.6638552
  54.6918243  21.4922097  34.7611022  55.6302108  22.1962142  33.8041859
  46.1695194  19.4968578  38.6453754  45.9719594  18.9037939  37.9204821
  45.6141858  19.1920788  39.3629693  54.1491918  19.3891684  40.7648347
  54.2040528  18.4365521  40.6890824  53.3383120  19.5451123  41.2489646
  55.2983112  23.3171807  32.0026631  54.8602542  22.6007666  31.5432268
  56.0393553  23.5447922  31.4411722  52.0884278  18.0068744  38.5238726
  51.2752143  18.3062915  38.9303918  52.5843272  17.6124433  39.2413209
  54.2392856  28.0026501  40.4572991  54.1969034  28.2287347  39.5281523
  55.1555555  27.7689876  40.6058792  51.5798353  15.5787100  44.1399961
  52.2197732  15.4375859  43.4422925  50.7475883  15.2921613  43.7638563
  52.3558656  24.8789530  40.2534954  53.1499255  24.3839850  40.0517529
  51.6450349  24.3507393  39.8902659  48.6641420  19.0232612  36.3294706
  47.7339008  18.9617067  36.5464669  48.7598892  18.5008565  35.5331348
  48.5826969  15.5487425  38.9172948  48.8433786  16.4632758  38.8082109
  49.4044141  15.0811867  39.0669561  50.0551894  16.9625182  46.0871773
  50.7274948  16.7542544  45.4384422  49.2281681  16.7647268  45.6477005
  54.9329932  25.4518552  43.9332791  54.7941018  25.0837336  44.8058729
  54.1444529  25.9666191  43.7616749  55.5278084  30.5527649  35.2758327
  55.7029840  30.0815692  36.0903950  54.8410872  31.1793415  35.5039588
  50.4579392  20.2367785  46.8474210  50.3199189  19.5048024  47.4485749
  51.3684315  20.1476685  46.5658398  53.0861692  19.9487744  46.3357889
  53.7961311  19.3080936  46.2944508  53.0431000  20.2000639  47.2584070
  50.0939170  33.7017011  42.0498188  50.3335768  34.3335535  42.7277206
  49.2508366  33.3505051  42.3363547  51.2092885  16.3941613  30.7179993
  50.3322351  16.2730414  30.3542239  51.6850638  15.6027692  30.4658881
  42.7295025  21.1818773  40.8121500  43.4166065  20.8680503  40.2242515
  42.5743154  22.0860138  40.5388751  47.5329747  16.0708970  45.2406523
  47.4487936  15.4634639  44.5056933  46.7112454  16.5617988  45.2416020
  54.6067032  29.5096134  44.4539692  54.5337203  30.3151105  44.9658996
  54.1644425  29.7088100  43.6287713  54.3956811  28.7467904  37.9642513
  53.6124333  29.2889584  38.0580738  55.0949556  29.2641883  38.3636754
  54.2888430  16.6979916  40.3348403  53.9186218  16.1450957  41.0229309
  54.7847523  16.0938050  39.7823403  52.1177629  27.1577411  47.4303421
  52.8187088  27.7913894  47.5832815  51.6472744  27.4992143  46.6699060
  47.7145347  26.6913766  44.3634524  48.2998784  25.9457454  44.4962428
  47.5170185  27.0017723  45.2471188  50.5684002  29.7265014  39.3796966
  49.8994377  30.2111141  38.8961006  50.4296872  29.9734234  40.2940345
  42.3063001  19.2619366  43.0838967  42.3447101  18.7282957  43.8776085
  41.8003294  18.7354572  42.4649944  54.7089271  31.7608757  45.9779624
  55.2607579  31.9240379  46.7428710  55.0495464  32.3513195  45.3059649
  49.6853764  14.1083907  46.5801509  49.7495090  14.9698738  46.1678907
  49.6220884  13.4957909  45.8473868  45.9371579  17.9883469  36.1592898
  46.2325020  17.0794147  36.1059952  45.0359615  17.9671208  35.8373901
  49.4665826  16.0639465  42.1420447  48.7452412  16.6775433  42.0027920
  50.2559082  16.5997230  42.0637093  47.6659421  15.6697566  36.2832223
  47.3372127  14.7894945  36.1007329  48.0198791  15.6145235  37.1708613
  50.7801244  15.9570536  36.6507701  51.1197316  16.4856457  35.9286309
  51.2273364  16.2950942  37.4266268  52.7669391  14.4545158  34.8500994
  53.4877753  14.8326410  34.3464711  52.1434695  15.1734035  34.9535972
  51.6499735  18.1176020  42.3630071  51.5044316  18.4316323  43.2554352
  51.1724939  18.7360920  41.8100969  53.5096118  15.1078568  42.4110960
  53.4957687  14.2119661  42.0743258  54.2268546  15.1149232  43.0449246
  46.1245397  20.6581364  45.3017732  45.5798865  21.4341172  45.4338006
  47.0024747  21.0052169  45.1436853  52.9133014  13.9892948  37.6798530
  53.0348925  13.0609594  37.8789418  52.6235056  14.0031634  36.7676846
  55.7824204  11.6747859  40.8165250  55.8045901  11.7387192  39.8617230
  56.1992263  10.8352367  41.0105756  46.9111419  19.7851261  48.1947889
  46.1693155  19.9333896  48.7812519  46.5904163  20.0459526  47.3314638
  54.8555082  29.3267239  47.9928279  55.1642208  29.0816386  48.8650978
  55.6530564  29.5313877  47.5047149  54.8775694  31.4805148  40.2233655
  54.4380684  30.9881527  40.9166512  55.6283811  30.9378116  39.9825731
  47.3568033  27.6716689  40.2258283  48.1826053  27.3720461  39.8456927
  47.0062085  26.9024312  40.6748072  52.3249566  27.0243157  42.2955957
  51.7029575  26.3613863  41.9958185  52.9954433  27.0504289  41.6129605
  45.5576638  25.5903016  41.1847217  44.7208546  25.1625190  41.0031218
  45.5300283  25.7835459  42.1218008  51.8863073  25.5747081  35.7714418
  52.0351193  26.2582545  35.1181090  52.6929516  25.5552171  36.2863873
  49.6415706  21.6012258  36.7775486  49.3961748  20.6974588  36.9755697
  49.8111620  21.6029409  35.8354964  48.9111353  17.3340616  34.2761648
  48.2180598  17.4084971  33.6201684  48.6663105  16.5700960  34.7983165
  55.3858478  28.0695211  33.2426165  54.8132446  28.6885398  32.7896637
  55.9591272  28.6194573  33.7766087  53.9548194  17.3306000  30.5197103
  53.0479649  17.0339113  30.5959816  54.2324175  17.0335819  29.6531389
  44.8726134  18.6512364  40.9696149  44.5528919  17.7977672  40.6770523
  44.3259563  18.8660942  41.7254116  48.6506042  21.3674805  44.6865656
  48.8692052  22.2991913  44.7053689  49.0631816  21.0082779  45.4720459
  55.5710260  11.8742890  36.6741344  54.7610988  11.5289975  37.0496590
  56.2594677  11.5650434  37.2628956  52.7246979  14.1892936  30.6609082
  53.5866143  14.5147834  30.9204899  52.9097323  13.4024432  30.1482148
  44.7414394  22.2715275  42.9389271  44.0477866  21.8569228  42.4259225
  45.4887385  22.3135812  42.3422690  46.6551137  22.2033529  40.8155286
  46.6321825  22.3021216  39.8637169  46.9651774  23.0498680  41.1372452
  49.3138515  24.2609684  44.9301900  50.2681768  24.2293626  44.8631832
  49.1151038  23.8000308  45.7452126  49.9037897  22.8310800  47.4972698
  50.7230786  23.3254879  47.5207535  50.1774705  21.9142768  47.4690265
  47.6688744  29.8029304  41.9472098  47.5343212  29.0429705  41.3810096
  47.2520806  30.5270203  41.4800887  50.8257870  30.6998621  42.1590541
  50.7090254  31.6444053  42.0569231  50.0050316  30.3972182  42.5476340
  45.1572811  17.1648934  48.1964895  45.8031675  16.6547888  48.6852120
  44.9489962  17.9017616  48.7708320  53.6776422  11.4288979  33.9488791
  53.6655092  12.3730819  34.1057062  54.5699844  11.2459124  33.6548252
  51.8512384  31.3526883  45.3746469  52.7539630  31.3850493  45.6912964
  51.6249754  30.4227333  45.3892805  53.6065986  30.1057869  42.0356548
  52.6561617  30.1059731  41.9220920  53.9098472  29.3590604  41.5192582
  53.5688780  36.5110691  40.8121500  54.2559820  36.1972421  40.2242515
  53.4136908  37.4152055  40.5388751  53.1456756  34.5911284  43.0838967
  53.1840855  34.0574875  43.8776085  52.6397049  34.0646490  42.4649944
  56.3970392  40.9194933  41.1847217  55.5602301  40.4917108  41.0031218
  56.3694038  41.1127377  42.1218008  55.7119889  33.9804282  40.9696149
  55.3922673  33.1269590  40.6770523  55.1653317  34.1952860  41.7254116
  55.5808149  37.6007193  42.9389271  54.8871620  37.1861146  42.4259225
  56.3281140  37.6427730  42.3422690  52.4552341   7.9593740  24.6295292
  52.3776371   8.9101565  24.7083773  51.8513985   7.6139612  25.2870218
  50.0939171  10.7079134  28.7743494  50.3335769  11.3397658  29.4522513
  49.2508367  10.3567174  29.0608853  50.5684003   6.7327136  26.1042273
  49.8994378   7.2173264  25.6206313  50.4296873   6.9796357  27.0185651
  54.7089272   8.7670880  32.7024931  55.2607580   8.9302501  33.4674016
  55.0495465   9.3575318  32.0304956  47.6688745   6.8091426  28.6717404
  47.5343213   6.0491827  28.1055403  47.2520807   7.5332326  28.2046193
  50.8257871   7.7060743  28.8835847  50.7090255   8.6506176  28.7814537
  50.0050317   7.4034305  29.2721646  51.8512385   8.3589005  32.0991776
  52.7539632   8.3912615  32.4158271  51.6249755   7.4289456  32.1138111
  53.5688781  13.5172813  27.5366806  54.2559821  13.2034543  26.9487822
  53.4136910  14.4214178  27.2634058  53.1456757  11.5973407  29.8084273
  53.1840857  11.0636997  30.6021392  52.6397050  11.0708612  29.1895251
  56.3970394  17.9257056  27.9092524  55.5602302  17.4979230  27.7276525
  56.3694039  18.1189499  28.8463315  55.7119890  10.9866404  27.6941456
  55.3922675  10.1331712  27.4015830  55.1653318  11.2014982  28.4499423
  55.5808150  14.6069316  29.6634577  54.8871622  14.1923268  29.1504532
  56.3281141  14.6489852  29.0667996   3.1318096  22.7202018  46.3365938
   2.4579794  23.0233715  46.9450896   3.5183918  23.5231098  45.9871396
   7.0974836  20.2987502  47.6105762   7.7925741  20.9194194  47.8293076
   7.4397986  19.4482853  47.8858140   1.1889705  20.4049253  46.5180855
   0.6163672  21.0239440  46.0651327   1.7622498  20.9548615  47.0520777
   4.4086965  20.6886403  47.6489438   5.3417638  20.6231965  47.8522313
   4.3210177  21.5242670  47.1903970   7.0374981  20.0052274  44.6093385
   6.9588613  19.6712137  45.5029143   7.8584648  20.4974042  44.6084857
   4.6078933  17.3220269  44.2303363   5.3114783  17.5270272  44.8461019
   3.8841582  17.8897031  44.4952447   6.5165630  17.7602798  46.2801823
   7.3511234  17.3283997  46.0979298   6.3549973  17.5884812  47.2078718
  15.1449905  28.2772450  56.3757000  15.7828315  28.1579197  55.6720340
  15.0270748  29.2253293  56.4344952   7.8126427  30.0835354  52.3015416
   7.2491293  29.9925291  51.5331704   7.6978822  29.2635258  52.7817908
  13.3925986  33.7506322  47.6129881  12.7413966  34.3360402  47.2263895
  14.1870349  34.2812517  47.6724918   7.3181613  30.8395459  48.0117015
   8.0912489  30.2924446  47.8729891   7.6707012  31.7039708  48.2231476
   9.6547891  26.9988125  45.6435465   9.9073412  26.4769646  44.8818928
   8.7172450  26.8354270  45.7462149  14.6991174  26.0023903  53.4510208
  15.4854263  25.5843327  53.1000625  14.9629878  26.9069996  53.6191857
  14.8701251  31.4396754  48.1498865  14.2347084  31.5131380  48.8619770
  14.5398658  32.0290353  47.4717944  20.0999601  25.9399137  54.3543187
  20.8324773  25.3698353  54.5881016  19.3438957  25.5520737  54.7949692
   9.3744180  28.9016231  47.8459840   9.2580438  28.2261134  48.5140924
   9.4846440  28.4148605  47.0291993  11.7175721  28.3626378  51.5506529
  11.3533928  27.8356999  52.2619451  12.5742837  27.9724847  51.3773015
  11.3581208  23.3916278  46.5467878  11.5255610  24.2596514  46.9138349
  11.1678377  23.5543559  45.6229167  11.3370429  25.8473935  47.5314545
  11.2170054  26.2930986  48.3700025  10.6423017  26.1959253  46.9728083
   9.0977321  38.6177577  51.1804676   9.0201350  39.5685402  51.2593156
   8.4938964  38.2723450  51.8379602  17.0355495  26.3195408  48.3594879
  17.9473351  26.5522795  48.1842576  16.5265142  26.9032453  47.7969957
  15.6425077  31.3021227  55.7508460  15.0133940  31.4666941  55.0484528
  15.2550739  31.7162836  56.5219424  19.5214309  32.2375665  53.1052824
  18.8365347  32.6174566  52.5549857  19.6058158  32.8470991  53.8384772
  11.1953039  31.0395635  53.0158545  11.6591385  31.3183338  52.2263168
  10.9309837  30.1379080  52.8331636  10.1321925  27.1618787  49.8248110
  10.8345968  27.6139831  50.2922037   9.8002554  26.5202606  50.4528003
  17.8911069  32.7607579  57.8770525  18.7128512  32.3587766  57.5953206
  17.8873471  32.6575813  58.8286640  25.9817062  29.1046328  54.2255496
  25.2280770  28.5353726  54.0699501  26.1164603  29.0708992  55.1726131
  11.3715690  33.9759730  49.9010216  11.2361364  34.8211266  50.3295063
  11.9125502  34.1779008  49.1376149   4.8245087  31.4935168  50.4738141
   5.3369608  32.2878418  50.6243705   5.4767800  30.7961458  50.4071742
   6.6339972  34.6100924  52.5560894   6.8106600  35.5318889  52.3681878
   7.4296805  34.2959344  52.9855274   2.7894004  29.8223822  51.2497711
   3.6269226  30.2320831  51.0331419   2.9672272  28.8823264  51.2197905
  14.6858436  27.4898903  46.9381544  14.1705059  28.2603508  47.1769932
  14.4135744  26.8164039  47.5614606  12.2705547  22.3348604  51.9966782
  11.4147143  21.9455454  51.8172421  12.6832499  22.4140565  51.1366568
  19.6592710  30.2431258  48.8734718  18.8822153  29.9042417  48.4289880
  20.3384191  30.2483881  48.1989683  14.4744739  25.3625995  48.7641325
  14.1694875  25.6772144  49.6151468  15.4275181  25.4407415  48.8068658
  12.9191171  31.5216218  50.4134279  12.3912533  30.7868978  50.1007517
  12.4178674  32.2990895  50.1674248  17.8984017  29.7165239  55.5301326
  17.2407691  30.4064500  55.6181454  18.7024416  30.1061671  55.8735312
  16.7089476  28.0709612  53.5805267  17.2221358  28.7039603  54.0826977
  17.3590700  27.4710807  53.2148627   7.9779486  24.2140346  46.7936776
   7.1416798  24.5515032  47.1146051   7.8384255  24.0789325  45.8563913
  11.0643771  29.3396429  43.4169252  10.1570833  29.1085682  43.6160401
  11.5614803  28.5434048  43.6043234  13.9711850  38.0493936  46.3365938
  13.2973549  38.3525633  46.9450896  14.3577672  38.8523016  45.9871396
  13.9705354  26.9450483  50.9566288  14.7177173  27.4571880  50.6473410
  14.2396944  26.6234536  51.8170682  12.2432005  29.4409024  47.9393242
  11.3343224  29.1568056  48.0365712  12.2727088  29.8608102  47.0796549
  17.4751272  33.0515613  51.7084410  17.0213599  32.2106523  51.7649600
  16.8445239  33.6877011  52.0459190  16.4184192  23.9807599  52.9385077
  15.6806948  23.4684985  53.2695320  16.6710965  23.5407981  52.1268354
  15.9184211  34.8892110  52.6434228  16.2107186  35.4497167  51.9246594
  16.4282832  35.1820671  53.3987387  10.7916899  27.0537644  54.0403038
  10.8465508  26.1011481  53.9645514   9.9808101  27.2097083  54.5244336
  11.9408092  30.9817767  45.2781321  11.5027522  30.2653626  44.8186958
  12.6818533  31.2093882  44.7166412   8.7309259  25.6714704  51.7993417
   7.9177124  25.9708874  52.2058609   9.2268253  25.2770393  52.5167899
  10.8817836  35.6672461  53.7327681  10.8394015  35.8933307  52.8036213
  11.7980535  35.4335835  53.8813482  20.0581207  29.2574964  51.3357640
  19.9199106  29.4476560  50.4078829  19.7017426  30.0194347  51.7925691
  20.0850587  31.3251491  56.3468911  20.5187093  31.2326780  57.1951965
  20.7982168  31.3008992  55.7088927   8.9983637  32.5435490  53.5289644
   9.7924236  32.0485810  53.3272219   8.2875330  32.0153353  53.1657350
   5.3066401  26.6878572  49.6049397   4.3763989  26.6263027  49.8219359
   5.4023873  26.1654524  48.8086038  20.9466136  31.3675192  58.8801796
  21.1402026  32.2721002  59.1261071  20.8466755  30.9082611  59.7140381
  12.1703065  38.2173608  48.5513018  12.3454821  37.7461651  49.3658640
  11.4835853  38.8439374  48.7794278  13.1260128  32.4946114  54.5976319
  12.7909961  32.4546884  55.4933969  12.6264074  31.8290830  54.1246729
  16.0619320  29.8402149  44.8713379  15.4448491  29.1148977  44.7746431
  15.5935808  30.6011509  44.5280453   7.8517866  24.0587573  43.9934683
   6.9747332  23.9376374  43.6296929   8.3275619  23.2673651  43.7413571
  11.0381792  36.4113863  51.2397203  10.2549314  36.9535544  51.3335428
  11.7374537  36.9287843  51.6391445  22.2008199  27.9248858  55.5249700
  22.1898076  28.8073574  55.1543633  21.3325579  27.5720409  55.3304237
  15.4308223  30.9780180  51.4569832  14.4964502  31.0981643  51.2874536
  15.6084891  30.0752647  51.1929842  18.8180774  26.8197499  51.9919866
  19.2841226  27.6525491  51.9180169  19.2688275  26.3542481  52.6965125
  16.8857005  33.1641321  48.9906018  17.1616849  33.0497915  49.8999892
  16.0161504  32.7658806  48.9518191  13.5211069  37.4127672  52.6338832
  13.7033464  36.5949328  53.0966584  14.3444055  37.6295364  52.1963722
  13.8553235  36.3395857  49.8953880  14.3841001  35.8288311  49.2824043
  14.1181454  36.0238387  50.7599413   2.5796560  25.6529428  49.4347588
   2.8750001  24.7440107  49.3814642   1.6784596  25.6317168  49.1128591
  14.4882639  37.3736692  56.2397997  14.3633778  36.5726432  55.7308942
  15.1461730  37.8682886  55.7511967  16.5517547  35.1745713  57.8677547
  15.6047882  35.0551064  57.7955874  16.9000320  34.2868211  57.9503808
  13.5563980  34.9698429  54.0681899  13.4088943  34.0415136  54.2489469
  14.3817474  34.9918519  53.5838974   7.4226225  23.6216496  49.9262391
   7.7622297  24.1502417  49.2041000   7.8698345  23.9596902  50.7020958
  17.1598102  35.7926987  55.1546772  18.0844650  35.5869849  55.0171223
  16.9913405  35.5443389  56.0636113   9.4094372  22.1191117  48.1255684
  10.1302734  22.4972370  47.6219401   8.7859676  22.8379994  48.2290662
  13.5525495  22.8236266  49.0614016  13.7689109  23.7060904  48.7602845
  13.0719562  22.4322480  48.3319658  16.9493418  36.3112655  50.5108863
  17.1230296  35.7459077  49.7582716  17.4422310  37.1113550  50.3288353
  22.8032809  29.0749078  52.1299163  23.2463955  28.3256403  51.7318286
  21.9259320  29.0659214  51.7472895  17.9368591  35.6279419  47.6105762
  18.6319495  36.2486112  47.8293076  18.2791741  34.7774771  47.8858140
  19.8360014  33.0779125  49.1393092  20.3611338  33.4166398  48.4142412
  19.7482366  32.1426140  48.9556227   8.5288054  33.2393041  49.0469108
   8.6776174  33.9228505  48.3935781   9.3354497  33.2198131  49.5618564
  22.3465674  30.5454316  54.5221611  23.1812566  30.9844120  54.6859171
  22.4824803  30.0692969  53.7029856   6.2840687  29.2658218  50.0530177
   6.0386729  28.3620548  50.2510387   6.4536601  29.2675369  49.1109655
   5.5536334  24.9986576  47.5516338   4.8605579  25.0730931  46.8956374
   5.3088086  24.2346919  48.0737855  12.0283459  35.7341171  46.5180855
  11.4557426  36.3531358  46.0651327  12.6016253  36.2840533  47.0520777
  15.2480719  36.0178321  47.6489438  16.1811392  35.9523883  47.8522313
  15.1603932  36.8534588  47.1903970  17.8768736  35.3344191  44.6093385
  17.7982367  35.0004055  45.5029143  18.6978402  35.8265959  44.6084857
  20.5746927  28.2005931  57.8169704  20.5423247  27.2621932  58.0029388
  21.1847551  28.2789968  57.0835529  12.4130258  27.0701984  43.8596908
  13.3589362  26.9408192  43.9285326  12.0344503  26.3316646  44.3366336
  26.3923477  29.2621938  56.9575740  27.1226865  29.0007226  57.5183444
  25.7830422  28.5250660  56.9977808  24.4738774  27.4029800  57.5550192
  23.7471937  27.2685765  56.9466683  24.0586061  27.7106629  58.3606910
  10.5973175  24.9951960  43.7951793   9.6904630  24.6985073  43.8714507
  10.8749156  24.6981778  42.9286079  12.2135241  19.5388850  49.9496034
  11.4035969  19.1935935  50.3251280  12.9019658  19.2296394  50.5383646
   9.3671960  21.8538895  43.9363772  10.2291124  22.1793794  44.1959590
   9.5522304  21.0670391  43.4236838  17.5204596  20.7267422  51.0798995
  16.9403265  21.3852226  50.6977048  17.2540529  19.9044766  50.6686413
  16.3029474  22.8867512  50.1355343  15.4155329  23.1717163  49.9175538
  16.7183463  22.7261276  49.2882620  19.6544010  22.9114033  53.8509683
  20.4304400  23.4010486  54.1234299  18.9292144  23.3372087  54.3081552
  22.0916569  23.6241652  54.9083623  22.6861060  23.3837388  54.1976932
  22.1643152  22.9048783  55.5357160  15.4472687  32.6512187  44.2303363
  16.1508538  32.8562189  44.8461019  14.7235336  33.2188949  44.4952447
  16.2770498  28.4022048  50.3505634  16.2205699  28.8590600  49.5113266
  16.8298840  27.6412733  50.1728476  20.0875304  24.1911780  51.1755753
  19.8312238  23.7908416  52.0063961  19.4628172  24.9055574  51.0505892
  24.3987642  26.9307853  53.6827044  23.8387199  27.0001043  54.4558607
  23.7931145  26.7548838  52.9626541  17.3559385  33.0894716  46.2801823
  18.1904989  32.6575915  46.0979298  17.1943728  32.9176730  47.2078718
  17.0105277  29.5926829  47.6458163  16.9554081  29.4271101  46.7046607
  16.3851332  30.3002862  47.8020352  10.3201403  19.0934938  47.2243481
  10.3080072  20.0376778  47.3811752  11.2124824  18.9105084  46.9302942
  18.6520182  45.4127272  52.3015416  18.0885047  45.3217209  51.5331704
  18.5372577  44.5927176  52.7817908  24.2319741  49.0798239  47.6129881
  23.5807720  49.6652320  47.2263895  25.0264103  49.6104434  47.6724918
  18.1575368  46.1687377  48.0117015  18.9306244  45.6216364  47.8729891
  18.5100767  47.0331626  48.2231476  20.4941646  42.3280043  45.6435465
  20.7467166  41.8061564  44.8818928  19.5566205  42.1646188  45.7462149
  25.5384928  41.3315821  53.4510208  26.3248018  40.9135244  53.1000625
  25.8023633  42.2361913  53.6191857  25.7095006  46.7688671  48.1498865
  25.0740839  46.8423298  48.8619770  25.3792412  47.3582270  47.4717944
  20.2137934  44.2308149  47.8459840  20.0974192  43.5553052  48.5140924
  20.3240194  43.7440523  47.0291993  22.5569475  43.6918296  51.5506529
  22.1927683  43.1648917  52.2619451  23.4136591  43.3016765  51.3773015
  22.1974962  38.7208195  46.5467878  22.3649365  39.5888432  46.9138349
  22.0072131  38.8835477  45.6229167  18.4062777  43.6338971  54.2470413
  17.4813273  43.5015185  54.4548104  18.6547190  44.4133190  54.7440355
  22.1764183  41.1765853  47.5314545  22.0563808  41.6222904  48.3700025
  21.4816772  41.5251171  46.9728083  27.8749249  41.6487326  48.3594879
  28.7867105  41.8814713  48.1842576  27.3658896  42.2324370  47.7969957
  25.2185224  37.8245362  56.6084739  24.3569703  38.1226616  56.9001477
  25.2447659  38.0415761  55.6765772  22.0346794  46.3687553  53.0158545
  22.4985139  46.6475256  52.2263168  21.7703592  45.4670997  52.8331636
  20.9715680  42.4910705  49.8248110  21.6739723  42.9431749  50.2922037
  20.6396308  41.8494524  50.4528003  14.7141014  40.7494258  55.1265244
  13.9240068  41.0051786  54.6505354  15.2052261  41.5642596  55.2317284
  16.6655759  41.1138837  52.0848721  15.8686922  41.2257531  52.6032216
  16.4381351  41.4525489  51.2189611  22.2109444  49.3051648  49.9010216
  22.0755119  50.1503183  50.3295063  22.7519257  49.5070925  49.1376149
  15.6638842  46.8227086  50.4738141  16.1763362  47.6170336  50.6243705
  16.3161554  46.1253376  50.4071742  17.4733726  49.9392842  52.5560894
  17.6500355  50.8610807  52.3681878  18.2690560  49.6251261  52.9855274
  25.5601908  32.8282210  58.4309109  25.2166177  33.7183851  58.3548220
  25.9280870  32.6383867  57.5678694  13.6287758  45.1515740  51.2497711
  14.4662980  45.5612748  51.0331419  13.8066026  44.2115182  51.2197905
  25.5252190  42.8190821  46.9381544  25.0098814  43.5895425  47.1769932
  25.2529499  42.1455957  47.5614606  23.1099302  37.6640521  51.9966782
  22.2540898  37.2747372  51.8172421  23.5226253  37.7432482  51.1366568
  24.6398448  35.1986865  56.3958342  24.1363244  35.1617000  55.5826148
  24.9329055  36.1079607  56.4554999  20.8841334  35.2825594  55.4024524
  21.7494331  35.0868403  55.0430413  20.9518843  35.0535946  56.3293881
  30.4986465  45.5723175  48.8734718  29.7215907  45.2334335  48.4289880
  31.1777946  45.5775798  48.1989683  25.3138494  40.6917913  48.7641325
  25.0088629  41.0064062  49.6151468  26.2668936  40.7699333  48.8068658
  23.7584925  46.8508136  50.4134279  23.2306287  46.1160896  50.1007517
  23.2572428  47.6282812  50.1674248  18.4903653  37.5127802  52.7740891
  19.0647405  37.2902984  52.0414084  19.0774636  37.5816497  53.5269492
  18.8173240  39.5432263  46.7936776  17.9810552  39.8806950  47.1146051
  18.6778010  39.4081243  45.8563913  20.7926321  34.3869051  51.5015960
  20.1390733  34.0718068  50.8772575  20.7506795  33.7644792  52.2275783
  21.9037526  44.6688346  43.4169252  20.9964587  44.4377600  43.6160401
  22.4008558  43.8725966  43.6043234  24.8105605  53.3785854  46.3365938
  24.1367303  53.6817550  46.9450896  25.1971427  54.1814934  45.9871396
  24.0264061  40.8750985  55.8263608  23.1086623  41.0965932  55.6685296
  24.4424205  40.9497295  54.9675315  24.8099109  42.2742400  50.9566288
  25.5570928  42.7863798  50.6473410  25.0790698  41.9526453  51.8170682
  23.0825759  44.7700941  47.9393242  22.1736978  44.4859974  48.0365712
  23.1120843  45.1900020  47.0796549  27.2577946  39.3099517  52.9385077
  26.5200703  38.7976903  53.2695320  27.5104720  38.8699898  52.1268354
  27.3589573  32.0875769  53.5326847  27.6648450  31.2273132  53.2452762
  28.0842178  32.6793389  53.3325841  13.6513929  42.4906455  51.9208445
  13.4538329  41.8975816  51.1959511  13.0960593  42.1858665  52.6384383
  21.6310653  42.3829562  54.0403038  21.6859263  41.4303398  53.9645514
  20.8201855  42.5389001  54.5244336  22.7801847  46.3109685  45.2781321
  22.3421277  45.5945544  44.8186958  23.5212288  46.5385800  44.7166412
  19.5703013  41.0006622  51.7993417  18.7570879  41.3000792  52.2058609
  20.0662007  40.6062310  52.5167899  30.8974962  44.5866882  51.3357640
  30.7592860  44.7768478  50.4078829  30.5411181  45.3486265  51.7925691
  19.0617088  38.5724977  57.4154652  19.7016467  38.4313736  56.7177615
  18.2294618  38.2859490  57.0393254  19.8377392  47.8727407  53.5289644
  20.6317990  47.3777728  53.3272219  19.1269084  47.3445271  53.1657350
  16.1460155  42.0170489  49.6049397  15.2157743  41.9554945  49.8219359
  16.2417627  41.4946442  48.8086038  16.0645704  38.5425302  52.1927638
  16.3252522  39.4570635  52.0836799  16.8862877  38.0749745  52.3424251
  23.0096820  53.5465526  48.5513018  23.1848575  53.0753569  49.3658640
  22.3229608  54.1731292  48.7794278  26.9013075  45.1694067  44.8713379
  26.2842245  44.4440895  44.7746431  26.4329563  45.9303427  44.5280453
  18.6911620  39.3879491  43.9934683  17.8141087  39.2668292  43.6296929
  19.1669373  38.5965569  43.7413571  25.1872197  37.5500411  53.8831409
  25.6840896  36.7970373  53.5632479  24.4159178  37.5864727  53.3174618
  26.2701977  46.3072098  51.4569832  25.3358256  46.4273560  51.2874536
  26.4478646  45.4044565  51.1929842  21.7707165  39.6917794  53.6103093
  21.4004953  39.1388834  54.2983999  22.2666258  39.0875927  53.0578093
  29.6574529  42.1489417  51.9919866  30.1234981  42.9817409  51.9180169
  30.1082029  41.6834399  52.6965125  27.7250760  48.4933238  48.9906018
  28.0010604  48.3789833  49.8999892  26.8555258  48.0950723  48.9518191
  27.6291191  34.5170004  56.0310768  26.7154271  34.7474231  56.1992975
  28.0584293  34.6008448  56.8824800  24.6946989  51.6687774  49.8953880
  25.2234756  51.1580229  49.2824043  24.9575209  51.3530305  50.7599413
  17.1672499  37.1021784  59.8556199  17.2313825  37.9636615  59.4433597
  17.1039619  36.4895786  59.1228558  13.4190314  40.9821346  49.4347588
  13.7143755  40.0732024  49.3814642  12.5178350  40.9609085  49.1128591
  16.9484561  39.0577343  55.4175137  16.2271147  39.6713310  55.2782610
  17.7377817  39.5935107  55.3391783  15.1478156  38.6635444  49.5586914
  14.8190862  37.7832823  49.3762020  15.5017527  38.6083112  50.4463303
  18.2619979  38.9508414  49.9262391  18.6016052  39.4794335  49.2041000
  18.7092099  39.2888820  50.7020958  20.9563420  37.3345464  59.3765459
  20.6160240  36.5353277  59.7786139  20.2502426  37.6347175  58.8042293
  21.6079892  34.4194777  57.8292782  22.4305961  33.9455255  57.7071673
  21.8517955  35.1985260  58.3291469  20.2488126  37.4483035  48.1255684
  20.9696489  37.8264288  47.6219401  19.6253430  38.1671912  48.2290662
  24.3919249  38.1528184  49.0614016  24.6082863  39.0352822  48.7602845
  23.9113316  37.7614397  48.3319658  19.1318470  41.1113897  55.6384761
  18.9863051  41.4254200  56.5309043  18.6543674  41.7298798  55.0855660
  20.9914853  38.1016445  55.6865651  20.9776422  37.2057539  55.3497949
  21.7087281  38.1087109  56.3203937  22.8440984  38.5353785  57.7318778
  22.5858762  39.4570856  57.7303108  22.3126024  38.1384220  58.4219242
  20.3951749  36.9830826  50.9553221  20.5167660  36.0547472  51.1544108
  20.1053792  36.9969512  50.0431536  23.2642940  34.6685736  54.0919941
  23.2864636  34.7325069  53.1371920  23.6810999  33.8290245  54.2860447
  28.7762345  50.9571337  47.6105762  29.4713250  51.5778030  47.8293076
  29.1185495  50.1066688  47.8858140  30.6753768  48.4071043  49.1393092
  31.2005092  48.7458315  48.4142412  30.5876121  47.4718058  48.9556227
  19.3681808  48.5684958  49.0469108  19.5169929  49.2520423  48.3935781
  20.1748252  48.5490048  49.5618564  17.1234441  44.5950136  50.0530177
  16.8780483  43.6912466  50.2510387  17.2930356  44.5967286  49.1109655
  16.3930089  40.3278493  47.5516338  15.6999334  40.4022848  46.8956374
  16.1481841  39.5638837  48.0737855  25.0643745  31.8874095  54.9555829
  25.3445499  31.2197284  55.5816255  25.8494352  32.0803190  54.4430493
  22.8677214  51.0633089  46.5180855  22.2951181  51.6823276  46.0651327
  23.4410007  51.6132450  47.0520777  26.0874474  51.3470239  47.6489438
  27.0205147  51.2815800  47.8522313  25.9997686  52.1826506  47.1903970
  28.7162490  50.6636109  44.6093385  28.6376122  50.3295973  45.5029143
  29.5372157  51.1557877  44.6084857  23.2524012  42.3993901  43.8596908
  24.1983117  42.2700110  43.9285326  22.8738257  41.6608563  44.3366336
  29.2245897  34.0649907  53.8223800  29.0270718  33.7564996  54.7067132
  29.8345602  34.7911546  53.9521729  21.4366929  40.3243878  43.7951793
  20.5298385  40.0276991  43.8714507  21.7142910  40.0273696  42.9286079
  23.0528995  34.8680768  49.9496034  22.2429723  34.5227853  50.3251280
  23.7413412  34.5588311  50.5383646  24.9819543  33.9458814  51.5720331
  25.5350582  34.3654268  52.2310354  25.2189630  33.0194562  51.6143287
  20.2065714  37.1830813  43.9363772  21.0684878  37.5085711  44.1959590
  20.3916058  36.3962309  43.4236838  28.3598350  36.0559340  51.0798995
  27.7797020  36.7144144  50.6977048  28.0934283  35.2336684  50.6686413
  26.8101917  35.4564397  53.2820315  27.3101695  35.5680932  52.4734634
  27.4537525  35.1525450  53.9221124  27.1423228  38.2159430  50.1355343
  26.2549084  38.5009081  49.9175538  27.5577218  38.0553193  49.2882620
  30.4937765  38.2405951  53.8509683  31.2698155  38.7302403  54.1234299
  29.7685899  38.6664005  54.3081552  26.2866442  47.9804105  44.2303363
  26.9902292  48.1854107  44.8461019  25.5629091  48.5480866  44.4952447
  27.1164252  43.7313966  50.3505634  27.0599454  44.1882517  49.5113266
  27.6692595  42.9704650  50.1728476  30.9269058  39.5203698  51.1755753
  30.6705992  39.1200333  52.0063961  30.3021926  40.2347492  51.0505892
  28.1953139  48.4186634  46.2801823  29.0298743  47.9867832  46.0979298
  28.0337482  48.2468647  47.2078718  27.8499032  44.9218747  47.6458163
  27.7947835  44.7563019  46.7046607  27.2245087  45.6294780  47.8020352
  21.1595157  34.4226856  47.2243481  21.1473827  35.3668696  47.3811752
  22.0518579  34.2397001  46.9302942  24.9747276  31.0169633  51.4789418
  24.2079672  30.4628119  51.6246100  25.3857981  31.0891501  52.3403570
  29.6566995  54.8724181  46.7936776  28.8204307  55.2098868  47.1146051
  29.5171764  54.7373161  45.8563913  29.5305375  54.7171408  43.9934683
  28.6534841  54.5960209  43.6296929  30.0063128  53.9257487  43.7413571
  32.2760684  55.6535796  43.7951793  31.3692139  55.3568908  43.8714507
  32.5536665  55.3565614  42.9286079  31.0459468  52.5122731  43.9363772
  31.9078632  52.8377629  44.1959590  31.2309813  51.7254227  43.4236838
  31.9988912  49.7518774  47.2243481  31.9867581  50.6960614  47.3811752
  32.8912333  49.5688919  46.9302942  15.1449907   5.2834572  43.1002307
  15.7828317   5.1641319  42.3965647  15.0270750   6.2315416  43.1590259
   7.8126429   7.0897477  39.0260722   7.2491294   6.9987414  38.2577010
   7.6978824   6.2697381  39.5063215  13.3925987  10.7568444  34.3375187
  12.7413967  11.3422525  33.9509201  14.1870350  11.2874639  34.3970225
   7.3181615   7.8457581  34.7362322   8.0912491   7.2986569  34.5975198
   7.6707013   8.7101831  34.9476783   9.6547892   4.0050248  32.3680772
   9.9073413   3.4831769  31.6064235   8.7172451   3.8416393  32.4707455
  14.6991175   3.0086026  40.1755515  15.4854264   2.5905449  39.8245932
  14.9629880   3.9132118  40.3437163  14.8701253   8.4458876  34.8744172
  14.2347086   8.5193503  35.5865076  14.5398659   9.0352475  34.1963251
  20.0999602   2.9461259  41.0788493  20.8324774   2.3760476  41.3126323
  19.3438958   2.5582860  41.5194999   9.3744181   5.9078354  34.5705147
   9.2580439   5.2323257  35.2386231   9.4846441   5.4210727  33.7537300
  11.7175722   5.3688501  38.2751836  11.3533929   4.8419122  38.9864757
  12.5742838   4.9786970  38.1018321  11.3370430   2.8536058  34.2559851
  11.2170055   3.2993109  35.0945331  10.6423018   3.2021376  33.6973389
   9.0977322  15.6239700  37.9049982   9.0201352  16.5747525  37.9838463
   8.4938966  15.2785572  38.5624909  17.0355496   3.3257531  35.0840185
  17.9473352   3.5584918  34.9087883  16.5265143   3.9094575  34.5215264
  15.6425078   8.3083349  42.4753767  15.0133941   8.4729064  41.7729835
  15.2550740   8.7224959  43.2464731  19.5214310   9.2437787  39.8298130
  18.8365348   9.6236689  39.2795164  19.6058160   9.8533114  40.5630078
  11.1953040   8.0457758  39.7403852  11.6591386   8.3245461  38.9508474
  10.9309838   7.1441202  39.5576942  10.1321926   4.1680910  36.5493417
  10.8345970   4.6201954  37.0167343   9.8002555   3.5264729  37.1773310
  17.8911070   9.7669702  44.6015831  18.7128514   9.3649889  44.3198513
  17.8873473   9.6637936  45.5531947  25.9817063   6.1108450  40.9500803
  25.2280771   5.5415848  40.7944807  26.1164604   6.0771115  41.8971438
  11.3715691  10.9821853  36.6255522  11.2361366  11.8273388  37.0540370
  11.9125503  11.1841130  35.8621456   4.8245088   8.4997291  37.1983447
   5.3369609   9.2940541  37.3489012   5.4767801   7.8023581  37.1317049
   6.6339973  11.6163047  39.2806200   6.8106601  12.5381012  39.0927184
   7.4296807  11.3021466  39.7100580   7.7571289  13.1341221  45.2816543
   8.3078714  13.0058284  44.5093537   6.9182764  13.4336110  44.9311436
  14.6858437   4.4961026  33.6626851  14.1705061   5.2665630  33.9015238
  14.4135746   3.8226162  34.2859912  19.6592711   7.2493380  35.5980024
  18.8822154   6.9104540  35.1535186  20.3384192   7.2546003  34.9234989
  14.4744740   2.3688118  35.4886632  14.1694876   2.6834267  36.3396775
  15.4275183   2.4469538  35.5313965  12.9191172   8.5278341  37.1379586
  12.3912534   7.7931101  36.8252823  12.4178675   9.3053017  36.8919554
  17.8984018   6.7227361  42.2546632  17.2407693   7.4126623  42.3426761
  18.7024417   7.1123793  42.5980619  16.7089477   5.0771734  40.3050574
  17.2221359   5.7101726  40.8072284  17.3590701   4.4772930  39.9393934
  11.0643772   6.3458551  30.1414559  10.1570834   6.1147805  30.3405708
  11.5614804   5.5496170  30.3288540  13.9711851  15.0556058  33.0611245
  13.2973550  15.3587755  33.6696203  14.3577673  15.8585139  32.7116702
  13.9705356   3.9512605  37.6811595  14.7177175   4.4634003  37.3718717
  14.2396945   3.6296658  38.5415988  12.2432006   6.4471146  34.6638549
  11.3343225   6.1630179  34.7611019  12.2727090   6.8670225  33.8041856
  17.4751273  10.0577736  38.4329717  17.0213600   9.2168645  38.4894907
  16.8445240  10.6939134  38.7704497  16.4184193   0.9869722  39.6630384
  15.6806950   0.4747108  39.9940627  16.6710966   0.5470103  38.8513661
  15.9184213  11.8954232  39.3679535  16.2107187  12.4559289  38.6491900
  16.4282833  12.1882793  40.1232694  10.7916900   4.0599767  40.7648344
  10.8465510   3.1073603  40.6890821   9.9808102   4.2159206  41.2489643
  11.9408094   7.9879890  32.0026628  11.5027524   7.2715749  31.5432265
  12.6818535   8.2156005  31.4411719  10.8817838  12.6734583  40.4572988
  10.8394017  12.8995430  39.5281520  11.7980537  12.4397958  40.6058789
  20.0581208   6.2637087  38.0602946  19.9199107   6.4538683  37.1324135
  19.7017427   7.0256470  38.5170997  20.0850588   8.3313614  43.0714218
  20.5187095   8.2388903  43.9197272  20.7982169   8.3071114  42.4334234
   8.9983638   9.5497612  40.2534951   9.7924237   9.0547933  40.0517526
   8.2875331   9.0215476  39.8902656  13.8178483  11.9315708  44.6047318
  13.8715505  12.5006644  45.3725034  12.9493264  12.1017593  44.2401355
  20.9466138   8.3737314  45.6047103  21.1402028   9.2783125  45.8506378
  20.8466756   7.9144734  46.4385688  11.5754914  10.1226634  43.9332788
  11.4366000   9.7545419  44.8058726  10.7869511  10.6374274  43.7616746
  13.1260130   9.5008237  41.3221626  12.7909962   9.4609007  42.2179275
  12.6264075   8.8352953  40.8492036  16.0619321   6.8464271  31.5958685
  15.4448492   6.1211100  31.4991738  15.5935810   7.6073632  31.2525759
   6.7364152  18.3725094  42.0498184   6.9760750  19.0043618  42.7277203
   5.8933348  18.0213134  42.3363544  11.2492014  14.1804216  44.4539688
  11.1762185  14.9859188  44.9658993  10.8069407  14.3796182  43.6287710
  11.0381793  13.4175986  37.9642510  10.2549315  13.9597666  38.0580734
  11.7374538  13.9349966  38.3636751  22.2008201   4.9310981  42.2495007
  22.1898077   5.8135697  41.8788940  21.3325580   4.5782532  42.0549544
  13.7090697  14.0791050  46.6097847  14.4218669  14.7138515  46.5373749
  13.2180726  14.1754916  45.7937849  15.4308224   7.9842303  38.1815139
  14.4964503   8.1043765  38.0119843  15.6084893   7.0814770  37.9175149
  18.8180775   3.8259622  38.7165173  19.2841228   4.6587614  38.6425476
  19.2688276   3.3604604  39.4210431  16.8857006  10.1703443  35.7151325
  17.1616850  10.0560038  36.6245199  16.0161505   9.7720928  35.6763498
  13.5211071  14.4189794  39.3584139  13.7033465  13.6011450  39.8211891
  14.3444057  14.6357486  38.9209029  13.8553236  13.3457979  36.6199187
  14.3841002  12.8350434  36.0069349  14.1181456  13.0300510  37.4844720
   7.2108984  14.3973096  39.3796963   6.5419359  14.8819224  38.8961003
   7.0721854  14.6442316  40.2940342  11.3514253  16.4316840  45.9779621
  11.9032561  16.5948461  46.7428707  11.6920446  17.0221277  45.3059646
  14.4882640  14.3798815  42.9643304  14.3633779  13.5788555  42.4554249
  15.1461731  14.8745008  42.4757273  16.5517548  12.1807835  44.5922854
  15.6047884  12.0613186  44.5201180  16.9000321  11.2930333  44.6749115
  13.5563981  11.9760551  40.7927206  13.4088944  11.0477259  40.9734776
  14.3817475  11.9980642  40.3084281  17.1598103  12.7989110  41.8792079
  18.0844651  12.5931971  41.7416530  16.9913407  12.5505511  42.7881420
  16.9493420  13.3174778  37.2354170  17.1230297  12.7521200  36.4828022
  17.4422311  14.1175672  37.0533660  22.8032811   6.0811200  38.8544470
  23.2463957   5.3318526  38.4563593  21.9259321   6.0721337  38.4718202
  17.9368592  12.6341542  34.3351068  18.6319497  13.2548235  34.5538383
  18.2791742  11.7836893  34.6103446  19.8360015  10.0841247  35.8638399
  20.3611339  10.4228520  35.1387719  19.7482368   9.1488263  35.6801534
  11.5200676  16.1513231  40.2233652  11.0805666  15.6589609  40.9166509
  12.2708793  15.6086198  39.9825727   3.9993015  12.3424772  40.2258280
   4.8251035  12.0428543  39.8456924   3.6487067  11.5732394  40.6748069
   8.9674548  11.6951240  42.2955954   8.3454557  11.0321945  41.9958182
   9.6379415  11.7212372  41.6129602   8.5288055  10.2455163  35.7714414
   8.6776175  10.9290628  35.1181087   9.3354498  10.2260253  36.2863870
  22.3465675   7.5516439  41.2466917  23.1812567   7.9906243  41.4104478
  22.4824804   7.0755092  40.4275163   6.2840688   6.2720341  36.7775483
   6.0386730   5.3682671  36.9755694   6.4536602   6.2737491  35.8354961
  12.0283460  12.7403294  33.2426162  11.4557428  13.3593481  32.7896634
  12.6016254  13.2902655  33.7766084  15.2480720  13.0240444  34.3734744
  16.1811393  12.9586005  34.5767620  15.1603933  13.8596711  33.9149277
  17.8768737  12.3406314  31.3338692  17.7982368  12.0066178  32.2274450
  18.6978404  12.8328082  31.3330164  20.5746928   5.2068053  44.5415010
  20.5423248   4.2684054  44.7274694  21.1847552   5.2852090  43.8080835
  12.4130259   4.0764106  30.5842214  13.3589364   3.9470314  30.6530632
  12.0344504   3.3378768  31.0611643  26.3923478   6.2684060  43.6821047
  27.1226866   6.0069348  44.2428750  25.7830423   5.5312782  43.7223115
  24.4738775   4.4091923  44.2795498  23.7471939   4.2747888  43.6711990
  24.0586062   4.7168751  45.0852216  17.5204597  -2.2670456  37.8044302
  16.9403266  -1.6085652  37.4222354  17.2540530  -3.0893111  37.3931719
  16.3029475  -0.1070365  36.8600650  15.4155330   0.1779285  36.6420845
  16.7183464  -0.2676602  36.0127927  19.6544011  -0.0823844  40.5754989
  20.4304402   0.4072608  40.8479606  18.9292146   0.3434210  41.0326859
  22.0916570   0.6303775  41.6328930  22.6861061   0.3899511  40.9222238
  22.1643154  -0.0889094  42.2602466   4.3113726  14.4737386  41.9472095
   4.1768194  13.7137787  41.3810093   3.8945788  15.1978286  41.4800884
  15.4472689   9.6574309  30.9548670  16.1508539   9.8624312  31.5706326
  14.7235337  10.2251071  31.2197754  16.2770499   5.4084171  37.0750940
  16.2205700   5.8652722  36.2358573  16.8298841   4.6474855  36.8973783
  20.0875305   1.1973903  37.9001060  19.8312239   0.7970538  38.7309267
  19.4628173   1.9117697  37.7751199  24.3987643   3.9369976  40.4072351
  23.8387201   4.0063165  41.1803913  23.7931146   3.7610960  39.6871847
   7.4682852  15.3706703  42.1590537   7.3515236  16.3152135  42.0569228
   6.6475298  15.0680265  42.5476337  17.3559386  10.0956839  33.0047130
  18.1904990   9.6638037  32.8224605  17.1943729   9.9238852  33.9324025
  17.0105278   6.5988952  34.3703469  16.9554082   6.4333223  33.4291914
  16.3851334   7.3064985  34.5265659   8.4937366  16.0234965  45.3746466
   9.3964612  16.0558575  45.6912961   8.2674736  15.0935416  45.3892802
  10.2490968  14.7765951  42.0356544   9.2986599  14.7767813  41.9220917
  10.5523454  14.0298686  41.5192579  25.9843661  20.6126490  43.1002307
  26.6222071  20.4933237  42.3965647  25.8664504  21.5607334  43.1590259
  22.7933368  20.5653918  43.0363832  22.4551879  20.4494983  42.1484366
  23.6623136  20.1645083  43.0164838  23.2753150  21.7188770  48.9950037
  23.2641791  21.3241568  48.1230541  23.4373790  20.9854842  49.5883809
  16.1984615  23.9140586  41.8644943  16.9905907  23.5731411  41.4491242
  16.4381265  24.0235561  42.7847096  19.9960412  24.5025881  47.9429221
  19.7050278  25.4071512  47.8275887  20.6317396  24.5442409  48.6573291
  20.9216618  21.8802730  44.5330581  21.5180191  21.6558752  43.8187544
  20.9791590  21.1387475  45.1356029  25.5384930  18.3377944  40.1755515
  26.3248019  17.9197367  39.8245932  25.8023634  19.2424036  40.3437163
  30.9393357  18.2753177  41.0788493  31.6718529  17.7052394  41.3126323
  30.1832713  17.8874777  41.5194999  28.4618777  11.9874751  45.5383102
  28.1302102  12.8570162  45.3144317  27.8664391  11.6711035  46.2177132
  22.1974964  15.7270318  33.2713184  22.3649366  16.5950554  33.6383655
  22.0072133  15.8897600  32.3474474  24.9550297  24.1887297  44.9379015
  24.6551020  25.0912336  44.8294822  24.6101356  23.9219480  45.7900168
  18.4062778  20.6401094  40.9715719  17.4813275  20.5077308  41.1793411
  18.6547191  21.4195313  41.4685662  28.3547441  16.7069837  42.6176452
  27.4464318  16.6385246  42.3235213  28.3035036  17.1841782  43.4458278
  15.7671589  20.2834367  41.8059508  15.8963970  20.5368846  42.7198920
  15.0869041  20.8762075  41.4864163  19.9371077  30.9531617  37.9049982
  19.8595106  31.9039442  37.9838463  19.3332720  30.6077490  38.5624909
  22.4288306  18.1259483  50.5611349  21.6521640  18.6853403  50.5514214
  23.0678869  18.6116266  51.0826219  30.2209087  14.9086276  44.3954326
  29.5783467  15.2018809  43.7494121  29.7164015  14.7939196  45.2007523
  20.6834679  20.9344936  50.1229316  21.4249363  21.4729980  49.8464140
  19.9771664  21.5611225  50.2800868  26.1590018  23.0774077  48.7201478
  26.5673374  22.6356487  47.9756110  25.4367280  22.5026704  48.9735671
  22.5121088  18.0146683  46.0935035  23.3582283  18.4386097  46.2369684
  22.4519726  17.3580308  46.7873598  26.4818833  23.6375267  42.4753767
  25.8527695  23.8020981  41.7729835  26.0944495  24.0516877  43.2464731
  30.3608065  24.5729705  39.8298130  29.6759103  24.9528606  39.2795164
  30.4451914  25.1825032  40.5630078  25.6620534  15.6751052  47.7516208
  25.4181465  16.4293112  47.2150484  25.9380464  16.0536399  48.5863455
  27.6158996  22.2189664  46.4293474  27.8275892  22.8621424  45.7527855
  27.5688745  21.3851981  45.9615404  25.2185225  14.8307485  43.3330046
  24.3569704  15.1288738  43.6246784  25.2447660  15.0477884  42.4011079
  18.9270876  22.9221157  42.6783615  19.4972233  23.3508425  42.0401100
  19.5178988  22.6403741  43.3767801  19.4196042  18.0884584  50.9244626
  18.7894703  18.7700865  51.1580023  19.3132130  17.9767666  49.9797765
  14.7141015  17.7556380  41.8510551  13.9240069  18.0113909  41.3750661
  15.2052262  18.5704718  41.9562591  28.7304824  25.0961619  44.6015831
  29.5522268  24.6941807  44.3198513  28.7267227  24.9929854  45.5531947
  16.6655760  18.1200960  38.8094027  15.8686923  18.2319654  39.3277523
  16.4381352  18.4587612  37.9434918  22.4961428  24.6445663  46.7576542
  22.5605860  25.1066070  47.5934714  21.7872352  24.0143028  46.8858852
  12.9978718  18.0086871  44.2825541  13.2486756  18.8933881  44.5483117
  13.5338266  17.8291472  43.5100633  36.8210817  21.4400368  40.9500803
  36.0674526  20.8707766  40.7944807  36.9558359  21.4063032  41.8971438
  21.6144746  13.8063229  50.8790134  22.3554459  14.4070382  50.7994596
  21.8462669  13.0640867  50.3208177  16.7586084  18.9919596  49.1568364
  16.6439599  18.0904854  49.4575463  15.9030602  19.2383293  48.8053180
  23.8377922  26.9337337  50.7555864  23.3941776  26.1473715  50.4376769
  24.4995135  27.1216487  50.0899755  18.5965043  28.4633138  45.2816543
  19.1472468  28.3350202  44.5093537  17.7576519  28.7628027  44.9311436
  25.9359160  27.2140137  48.7837266  25.9177635  28.0349018  48.2917535
  26.8579080  27.0894212  49.0087407  22.3932214  24.7284266  49.6260774
  22.9260551  23.9672554  49.3960082  21.8646295  24.4357918  50.3684928
  25.5601909   9.8344332  45.1554416  25.2166178  10.7245974  45.0793526
  25.9280872   9.6445990  44.2924001  13.6287760  22.1577863  37.9743018
  14.4662982  22.5674871  37.7576726  13.8066027  21.2177305  37.9443212
  23.1099303  14.6702644  38.7212089  22.2540899  14.2809494  38.5417728
  23.5226255  14.7494605  37.8611875  24.6398449  12.2048987  43.1203649
  24.1363245  12.1679122  42.3071454  24.9329056  13.1141730  43.1800306
  20.8841335  12.2887717  42.1269831  21.7494332  12.0930526  41.7675720
  20.9518844  12.0598069  43.0539187  28.7377773  22.0519279  42.2546632
  28.0801447  22.7418541  42.3426761  29.5418172  22.4415711  42.5980619
  18.4903654  14.5189925  39.4986197  19.0647406  14.2965106  38.7659390
  19.0774637  14.5878619  40.2514799  27.5483232  20.4063652  40.3050574
  28.0615113  21.0393644  40.8072284  28.1984455  19.8064847  39.9393934
  18.8173241  16.5494386  33.5182083  17.9810554  16.8869072  33.8391357
  18.6778011  16.4143366  32.5809220  20.7926322  11.3931174  38.2261267
  20.1390734  11.0780191  37.6017882  20.7506796  10.7706914  38.9521090
  24.0264062  17.8813107  42.5508914  23.1086624  18.1028054  42.3930603
  24.4424206  17.9559418  41.6920622  27.2577947  16.3161639  39.6630384
  26.5200704  15.8039026  39.9940627  27.5104721  15.8762021  38.8513661
  26.7577967  27.2246150  39.3679535  27.0500941  27.7851207  38.6491900
  27.2676588  27.5174711  40.1232694  27.3589575   9.0937891  40.2572153
  27.6648451   8.2335255  39.9698068  28.0842179   9.6855512  40.0571147
  13.6513931  19.4968578  38.6453751  13.4538331  18.9037939  37.9204818
  13.0960595  19.1920788  39.3629690  21.6310654  19.3891684  40.7648344
  21.6859264  18.4365521  40.6890821  20.8201856  19.5451123  41.2489643
  19.5703014  18.0068744  38.5238723  18.7570880  18.3062915  38.9303915
  20.0662009  17.6124433  39.2413205  25.1677226  18.4710569  47.3553617
  25.5226614  18.6982042  48.2148083  25.8149357  18.8028945  46.7330872
  30.8974963  21.5929004  38.0602946  30.7592862  21.7830600  37.1324135
  30.5411182  22.3548387  38.5170997  19.0617089  15.5787100  44.1399958
  19.7016468  15.4375859  43.4422922  18.2294620  15.2921613  43.7638560
  30.9244343  23.6605531  43.0714218  31.3580849  23.5680821  43.9197272
  31.6375923  23.6363032  42.4334234  24.6572237  27.2607626  44.6047318
  24.7109260  27.8298562  45.3725034  23.7887019  27.4309511  44.2401355
  16.1460156  19.0232612  36.3294703  15.2157745  18.9617067  36.5464665
  16.2417628  18.5008565  35.5331345  16.0645705  15.5487425  38.9172945
  16.3252523  16.4632758  38.8082105  16.8862878  15.0811867  39.0669558
  17.5370631  16.9625182  46.0871770  18.2093684  16.7542544  45.4384418
  16.7100417  16.7647268  45.6477002  31.7859892  23.7029232  45.6047103
  31.9795782  24.6075043  45.8506378  31.6860510  23.2436651  46.4385688
  23.4396203  13.5887123  48.1037430  22.7924118  14.2877072  48.0101907
  24.2097218  14.0223267  48.4713679  26.8475001  23.8535975  51.1787984
  26.6960507  23.6246527  50.2618067  26.8379680  24.8106576  51.1919329
  23.6160337  21.4267888  46.1634250  24.5452397  21.5779047  45.9903217
  23.1951367  21.5151908  45.3082897  22.4148669  25.4518552  43.9332788
  22.2759755  25.0837336  44.8058726  21.6263265  25.9666191  43.7616746
  23.9653884  24.8300155  41.3221626  23.6303717  24.7900925  42.2179275
  23.4657830  24.1644871  40.8492036  17.9398128  20.2367785  46.8474207
  17.8017926  19.5048024  47.4485746  18.8503052  20.1476685  46.5658394
  20.5680429  19.9487744  46.3357886  21.2780047  19.3080936  46.2944505
  20.5249737  20.2000639  47.2584067  28.5567207  26.8855097  49.2564466
  28.4979754  26.2014318  48.5895049  28.9586726  27.6274087  48.8045092
  19.2809363  16.9352962  48.1553526  18.7446720  16.4843700  48.8075122
  18.6926071  17.0698871  47.4123990  17.5757906  33.7017011  42.0498184
  17.8154504  34.3335535  42.7277203  16.7327103  33.3505051  42.3363544
  18.6911622  16.3941613  30.7179989  17.8141088  16.2730414  30.3542236
  19.1669375  15.6027692  30.4658878  28.5584615  24.8494681  47.4878445
  27.6711393  24.5120603  47.6104844  29.1283166  24.1177713  47.7247211
  10.2113762  21.1818773  40.8121497  10.8984802  20.8680503  40.2242512
  10.0561891  22.0860138  40.5388748  15.0148484  16.0708970  45.2406520
  14.9306673  15.4634639  44.5056930  14.1931190  16.5617988  45.2416017
  22.0885768  29.5096134  44.4539688  22.0155940  30.3151105  44.9658993
  21.6463161  29.7088100  43.6287710  25.1872198  14.5562533  40.6076715
  25.6840897  13.8032496  40.2877786  24.4159179  14.5926850  40.0419925
  33.0401955  20.2602899  42.2495007  33.0291831  21.1427614  41.8788940
  32.1719335  19.9074450  42.0549544  24.5484452  29.4082968  46.6097847
  25.2612424  30.0430433  46.5373749  24.0574480  29.5046834  45.7937849
  21.7707167  16.6979916  40.3348400  21.4004954  16.1450957  41.0229306
  22.2666259  16.0938050  39.7823400  29.6574530  19.1551540  38.7165173
  30.1234982  19.9879531  38.6425476  30.1082030  18.6896521  39.4210431
  19.5996365  27.1577411  47.4303418  20.3005825  27.7913894  47.5832812
  19.1291480  27.4992143  46.6699057  27.6291193  11.5232127  42.7556074
  26.7154272  11.7536354  42.9238281  28.0584294  11.6070571  43.6070107
  27.3997651  19.7122019  45.2555968  26.7469101  19.9597926  44.6008421
  27.7778031  18.8986157  44.9218446  24.3604825  29.7481712  39.3584139
  24.5427220  28.9303368  39.8211891  25.1837811  29.9649404  38.9209029
  23.4485224  20.4541830  51.7422005  22.7725861  20.3535959  52.4124381
  24.2712858  20.2981043  52.2058003  15.1964083  26.6913766  44.3634521
  15.7817520  25.9457454  44.4962425  14.9988922  27.0017723  45.2471184
  18.0502738  29.7265014  39.3796963  17.3813114  30.2111141  38.8961003
  17.9115608  29.9734234  40.2940342   9.7881738  19.2619366  43.0838964
   9.8265837  18.7282957  43.8776082   9.2822031  18.7354572  42.4649941
  22.1908007  31.7608757  45.9779621  22.7426315  31.9240379  46.7428707
  22.5314200  32.3513195  45.3059646  17.1672500  14.1083907  46.5801506
  17.2313827  14.9698738  46.1678904  17.1039620  13.4957909  45.8473865
  27.0418881  26.5870015  51.8328276  27.5858785  27.1999973  51.3383231
  26.4605726  27.1449593  52.3495289  13.4190316  17.9883469  36.1592895
  13.7143757  17.0794147  36.1059949  12.5178351  17.9671208  35.8373897
  25.3276394  29.7090733  42.9643304  25.2027534  28.9080473  42.4554249
  25.9855485  30.2036926  42.4757273  16.9484563  16.0639465  42.1420444
  16.2271148  16.6775433  42.0027917  17.7377818  16.5997230  42.0637090
  27.3911303  27.5099753  44.5922854  26.4441638  27.3905104  44.5201180
  27.7394076  26.6222251  44.6749115  19.7510876  13.3993892  48.4161095
  20.2745278  13.6456188  49.1787405  19.5323209  14.2313927  47.9964233
  15.1478157  15.6697566  36.2832220  14.8190863  14.7894945  36.1007326
  15.5017528  15.6145235  37.1708610  24.3957736  27.3052469  40.7927206
  24.2482698  26.3769176  40.9734776  25.2211229  27.3272560  40.3084281
  18.2619980  15.9570536  36.6507698  18.6016053  16.4856457  35.9286306
  18.7092101  16.2950942  37.4266265  27.9991858  28.1281028  41.8792079
  28.9238405  27.9223889  41.7416530  27.8307161  27.8797429  42.7881420
  20.9563421  14.3407587  46.1010766  20.6160241  13.5415400  46.5031446
  20.2502427  14.6409298  45.5287599  21.6079893  11.4256899  44.5538089
  22.4305962  10.9517377  44.4316979  21.8517956  12.2047383  45.0536775
  20.2488127  14.4545158  34.8500991  20.9696490  14.8326410  34.3464708
  19.6253432  15.1734035  34.9535969  24.3919250  15.1590307  35.7859323
  24.6082865  16.0414945  35.4848151  23.9113317  14.7676520  35.0564965
  19.1318472  18.1176020  42.3630068  18.9863052  18.4316323  43.2554349
  18.6543675  18.7360920  41.8100966  20.9914855  15.1078568  42.4110957
  20.9776423  14.2119661  42.0743255  21.7087283  15.1149232  43.0449243
  22.8440985  15.5415908  44.4564085  22.5858763  16.4632979  44.4548415
  22.3126026  15.1446343  45.1464549  27.7887174  28.6466695  37.2354170
  27.9624052  28.0813118  36.4828022  28.2816065  29.4467590  37.0533660
  13.6064134  20.6581364  45.3017729  13.0617602  21.4341172  45.4338003
  14.4843484  21.0052169  45.1436850  20.3951750  13.9892948  37.6798527
  20.5167662  13.0609594  37.8789415  20.1053793  14.0031634  36.7676843
  23.2642941  11.6747859  40.8165247  23.2864638  11.7387192  39.8617227
  23.6811000  10.8352367  41.0105753  33.6426565  21.4103118  38.8544470
  34.0857711  20.6610443  38.4563593  32.7653075  21.4013255  38.4718202
  14.3930156  19.7851261  48.1947886  13.6511892  19.9333896  48.7812516
  14.0722900  20.0459526  47.3314635  22.3373818  29.3267239  47.9928276
  22.6460945  29.0816386  48.8650975  23.1349300  29.5313877  47.5047146
  22.3594430  31.4805148  40.2233652  21.9199421  30.9881527  40.9166509
  23.1102547  30.9378116  39.9825727  14.8386769  27.6716689  40.2258280
  15.6644789  27.3720461  39.8456924  14.4880821  26.9024312  40.6748069
  19.8068303  27.0243157  42.2955954  19.1848312  26.3613863  41.9958182
  20.4773169  27.0504289  41.6129602  13.0395374  25.5903016  41.1847214
  12.2027283  25.1625190  41.0031215  13.0119020  25.7835459  42.1218005
  30.3647676  26.0466069  51.1689597  29.5743219  26.0290208  50.6294096
  30.1281030  26.5854362  51.9238634  30.4845551  22.8958535  48.4822326
  30.5343556  22.7308543  49.4237848  30.3759474  22.0285794  48.0920206
  27.7749313  18.8789463  49.7981632  28.6759176  18.7395928  49.5065630
  27.8497288  19.0443918  50.7379810  22.1092118  16.2556318  48.6434819
  21.2395428  16.5489884  48.3717407  22.3451599  16.8396763  49.3642082
  31.9863748  25.3155477  48.7264347  31.6948556  25.6785457  49.5627808
  31.3735879  24.6022485  48.5477679  33.1859430  22.8808356  41.2466917
  34.0206321  23.3198161  41.4104478  33.3218559  22.4047010  40.4275163
  30.2350936  20.4388091  47.1944405  30.7105057  20.6315738  46.3863256
  29.3116501  20.4947277  46.9487789  24.8131152  12.4735935  46.1600239
  25.3313096  13.2096962  45.8346728  24.4586285  12.7799928  46.9946998
  16.3930090  17.3340616  34.2761645  15.6999335  17.4084971  33.6201681
  16.1481842  16.5700960  34.7983162  25.0643746   8.8936217  41.6801136
  25.3445500   8.2259406  42.3061562  25.8494353   9.0865313  41.1675799
  28.9352605  17.3153851  45.4272711  29.8870028  17.4151949  45.4484935
  28.7656055  16.5232120  45.9370795  26.9566984  14.4009435  45.6132112
  26.3616916  14.6814447  44.9178600  26.6716681  14.8903336  46.3848853
  31.4140683  20.5359971  44.5415010  31.3817003  19.5975972  44.7274694
  32.0241306  20.6144008  43.8080835  31.5635171  17.3271014  44.5873294
  31.0474220  16.5429471  44.4003222  32.4475120  16.9989731  44.7519813
  29.2245898  11.0712030  40.5469106  29.0270719  10.7627118  41.4312438
  29.8345604  11.7973669  40.6767036  37.2317232  21.5975978  43.6821047
  37.9620621  21.3361266  44.2428750  36.6224178  20.8604700  43.7223115
  35.3132530  19.7383840  44.2795498  34.5865693  19.6039805  43.6711990
  34.8979816  20.0460669  45.0852216  23.1362706  23.4573770  52.0442871
  24.0565715  23.6352369  52.2382918  23.1012289  22.5129816  51.8922571
  21.4366931  17.3306000  30.5197100  20.5298386  17.0339113  30.5959813
  21.7142912  17.0335819  29.6531386  12.3544871  18.6512364  40.9696146
  12.0347655  17.7977672  40.6770520  11.8078299  18.8660942  41.7254113
  16.1324779  21.3674805  44.6865653  16.3510788  22.2991913  44.7053686
  16.5450552  21.0082779  45.4720456  23.0528996  11.8742890  36.6741341
  22.2429725  11.5289975  37.0496587  23.7413413  11.5650434  37.2628952
  24.9819545  10.9520937  38.2965638  25.5350583  11.3716390  38.9555661
  25.2189631  10.0256685  38.3388594  20.2065715  14.1892936  30.6609079
  21.0684879  14.5147834  30.9204896  20.3916059  13.4024432  30.1482145
  12.2233131  22.2715275  42.9389268  11.5296602  21.8569228  42.4259222
  12.9706122  22.3135812  42.3422687  28.3598352  13.0621462  37.8044302
  27.7797021  13.7206266  37.4222354  28.0934284  12.2398807  37.3931719
  26.8101918  12.4626520  40.0065622  27.3101696  12.5743054  39.1979941
  27.4537526  12.1587573  40.6466431  20.8683914  20.3705149  52.8933463
  20.3850996  21.1705510  53.0997352  20.9544853  20.3813094  51.9400907
  14.1369874  22.2033529  40.8155282  14.1140562  22.3021216  39.8637166
  14.4470510  23.0498680  41.1372449  16.7957251  24.2609684  44.9301897
  17.7500505  24.2293626  44.8631828  16.5969775  23.8000308  45.7452123
  17.3856634  22.8310800  47.4972695  18.2049523  23.3254879  47.5207532
  17.6593441  21.9142768  47.4690262  27.1423230  15.2221552  36.8600650
  26.2549085  15.5071203  36.6420845  27.5577219  15.0615316  36.0127927
  30.4937766  15.2468073  40.5754989  31.2698156  15.7364526  40.8479606
  29.7685900  15.6726128  41.0326859  32.9310325  15.9595693  41.6328930
  33.5254815  15.7191429  40.9222238  33.0036908  15.2402823  42.2602466
  15.1507480  29.8029304  41.9472095  15.0161948  29.0429705  41.3810093
  14.7339542  30.5270203  41.4800884  30.9269059  16.5265820  37.9001060
  30.6705994  16.1262456  38.7309267  30.3021927  17.2409614  37.7751199
  35.2381397  19.2661894  40.4072351  34.6780955  19.3355083  41.1803913
  34.6324901  19.0902878  39.6871847  18.3076606  30.6998621  42.1590537
  18.1908990  31.6444053  42.0569228  17.4869052  30.3972182  42.5476337
  12.6391548  17.1648934  48.1964892  13.2850411  16.6547888  48.6852117
  12.4308699  17.9017616  48.7708317  25.1644940  24.2329782  53.6957032
  26.0336100  24.4070434  53.3343667  24.6851691  25.0524198  53.5732762
  21.1595158  11.4288979  33.9488788  21.1473828  12.3730819  34.1057059
  22.0518580  11.2459124  33.6548249  19.3331120  31.3526883  45.3746466
  20.2358367  31.3850493  45.6912961  19.1068490  30.4227333  45.3892802
  21.0884722  30.1057869  42.0356544  20.1380353  30.1059731  41.9220917
  21.3917208  29.3590604  41.5192579  24.9747278   8.0231755  38.2034725
  24.2079674   7.4690242  38.3491407  25.3857983   8.0953624  39.0648876
  36.8237416  35.9418407  43.1002307  37.4615826  35.8225155  42.3965647
  36.7058259  36.8899251  43.1590259  33.6327122  35.8945836  43.0363832
  33.2945634  35.7786900  42.1484366  34.5016890  35.4937001  43.0164838
  29.4913938  37.7481312  39.0260722  28.9278803  37.6571249  38.2577010
  29.3766333  36.9281216  39.5063215  34.1146905  37.0480687  48.9950037
  34.1035546  36.6533486  48.1230541  34.2767544  36.3146760  49.5883809
  27.0378370  39.2432504  41.8644943  27.8299662  38.9023328  41.4491242
  27.2775020  39.3527479  42.7847096  35.0713496  41.4152280  34.3375187
  34.4201476  42.0006360  33.9509201  35.8657859  41.9458475  34.3970225
  30.8354166  39.8317799  47.9429221  30.5444032  40.7363430  47.8275887
  31.4711150  39.8734327  48.6573291  31.7610373  37.2094648  44.5330581
  32.3573945  36.9850670  43.8187544  31.8185345  36.4679393  45.1356029
  36.3778684  33.6669861  40.1755515  37.1641773  33.2489284  39.8245932
  36.6417389  34.5715954  40.3437163  41.7787111  33.6045095  41.0788493
  42.5112283  33.0344311  41.3126323  41.0226467  33.2166695  41.5194999
  33.3963231  36.0272336  38.2751836  33.0321438  35.5002957  38.9864757
  34.2530347  35.6370805  38.1018321  39.3012532  27.3166669  45.5383102
  38.9695856  28.1862080  45.3144317  38.7058145  27.0002953  46.2177132
  35.7944051  39.5179215  44.9379015  35.4944774  40.4204253  44.8294822
  35.4495111  39.2511398  45.7900168  29.2456533  35.9693011  40.9715719
  28.3207029  35.8369226  41.1793411  29.4940946  36.7487231  41.4685662
  39.1941195  32.0361755  42.6176452  38.2858072  31.9677163  42.3235213
  39.1428791  32.5133700  43.4458278  26.6065344  35.6126285  41.8059508
  26.7357725  35.8660764  42.7198920  25.9262795  36.2053993  41.4864163
  30.7764831  46.2823535  37.9049982  30.6988861  47.2331360  37.9838463
  30.1726475  45.9369407  38.5624909  33.2682061  33.4551400  50.5611349
  32.4915395  34.0145321  50.5514214  33.9072624  33.9408183  51.0826219
  41.0602841  30.2378193  44.3954326  40.4177222  30.5310726  43.7494121
  40.5557770  30.1231114  45.2007523  31.5228433  36.2636854  50.1229316
  32.2643117  36.8021898  49.8464140  30.8165419  36.8903143  50.2800868
  36.9983773  38.4065994  48.7201478  37.4067129  37.9648405  47.9756110
  36.2761034  37.8318622  48.9735671  33.3514843  33.3438601  46.0935035
  34.1976038  33.7678015  46.2369684  33.2913480  32.6872225  46.7873598
  37.3212587  38.9667185  42.4753767  36.6921450  39.1312899  41.7729835
  36.9338249  39.3808794  43.2464731  41.2001819  39.9021623  39.8298130
  40.5152857  40.2820524  39.2795164  41.2845669  40.5116949  40.5630078
  36.5014288  31.0042969  47.7516208  36.2575220  31.7585030  47.2150484
  36.7774219  31.3828317  48.5863455  38.4552751  37.5481582  46.4293474
  38.6669646  38.1913342  45.7527855  38.4082499  36.7143898  45.9615404
  36.0578980  30.1599402  43.3330046  35.1963459  30.4580656  43.6246784
  36.0841414  30.3769801  42.4011079  32.8740549  38.7041593  39.7403852
  33.3378895  38.9829296  38.9508474  32.6097347  37.8025038  39.5576942
  29.7664630  38.2513074  42.6783615  30.3365987  38.6800343  42.0401100
  30.3572742  37.9695659  43.3767801  30.2589797  33.4176502  50.9244626
  29.6288457  34.0992783  51.1580023  30.1525885  33.3059584  49.9797765
  25.5534769  33.0848298  41.8510551  24.7633823  33.3405826  41.3750661
  26.0446017  33.8996636  41.9562591  39.5698579  40.4253537  44.6015831
  40.3916023  40.0233724  44.3198513  39.5660982  40.3221771  45.5531947
  33.3355182  39.9737580  46.7576542  33.3999615  40.4357988  47.5934714
  32.6266106  39.3434945  46.8858852  23.8372472  33.3378788  44.2825541
  24.0880511  34.2225798  44.5483117  24.3732021  33.1583390  43.5100633
  47.6604572  36.7692286  40.9500803  46.9068280  36.1999684  40.7944807
  47.7952113  36.7354950  41.8971438  33.0503200  41.6405688  36.6255522
  32.9148875  42.4857224  37.0540370  33.5913012  41.8424966  35.8621456
  29.5370540  27.7197268  53.2869877  29.1437485  27.1663466  53.9617522
  30.3536680  28.0307846  53.6776395  26.5032597  39.1581126  37.1983447
  27.0157118  39.9524376  37.3489012  27.1555310  38.4607416  37.1317049
  28.3127482  42.2746882  39.2806200  28.4894110  43.1964847  39.0927184
  29.1084316  41.9605301  39.7100580  32.4538501  29.1355147  50.8790134
  33.1948214  29.7362300  50.7994596  32.6856423  28.3932785  50.3208177
  27.5979839  34.3211514  49.1568364  27.4833354  33.4196771  49.4575463
  26.7424356  34.5675211  48.8053180  34.6771676  42.2629254  50.7555864
  34.2335530  41.4765633  50.4376769  35.3388890  42.4508405  50.0899755
  29.4358797  43.7925056  45.2816543  29.9866223  43.6642119  44.5093537
  28.5970273  44.0919945  44.9311436  36.7752914  42.5432054  48.7837266
  36.7571390  43.3640935  48.2917535  37.6972834  42.4186130  49.0087407
  33.2325969  40.0576184  49.6260774  33.7654305  39.2964472  49.3960082
  32.7040050  39.7649836  50.3684928  36.3995664  25.1636250  45.1554416
  36.0559933  26.0537891  45.0793526  36.7674626  24.9737907  44.2924001
  24.4681514  37.4869780  37.9743018  25.3056736  37.8966789  37.7576726
  24.6459782  36.5469222  37.9443212  33.9493057  29.9994562  38.7212089
  33.0934654  29.6101412  38.5417728  34.3620009  30.0786522  37.8611875
  35.4792204  27.5340905  43.1203649  34.9756999  27.4971040  42.3071454
  35.7722811  28.4433648  43.1800306  31.7235090  27.6179635  42.1269831
  32.5888087  27.4222443  41.7675720  31.7912599  27.3889986  43.0539187
  41.3380220  37.9077216  35.5980024  40.5609663  37.5688375  35.1535186
  42.0171701  37.9129839  34.9234989  34.5978681  39.1862176  37.1379586
  34.0700043  38.4514936  36.8252823  34.0966184  39.9636853  36.8919554
  39.5771527  37.3811197  42.2546632  38.9195202  38.0710458  42.3426761
  40.3811926  37.7707629  42.5980619  29.3297409  29.8481843  39.4986197
  29.9041161  29.6257024  38.7659390  29.9168391  29.9170537  40.2514799
  38.3876986  35.7355570  40.3050574  38.9008868  36.3685561  40.8072284
  39.0378210  35.1356765  39.9393934  31.6320077  26.7223092  38.2261267
  30.9784489  26.4072109  37.6017882  31.5900551  26.0998832  38.9521090
  35.6499360  45.7139894  33.0611245  34.9761059  46.0171591  33.6696203
  36.0365182  46.5168974  32.7116702  34.8657817  33.2105025  42.5508914
  33.9480378  33.4319972  42.3930603  35.2817961  33.2851336  41.6920622
  35.6492865  34.6096441  37.6811595  36.3964684  35.1217838  37.3718717
  35.9184454  34.2880493  38.5415988  39.1538782  40.7161571  38.4329717
  38.7001109  39.8752481  38.4894907  38.5232749  41.3522969  38.7704497
  38.0971702  31.6453557  39.6630384  37.3594459  31.1330943  39.9940627
  38.3498475  31.2053939  38.8513661  37.5971722  42.5538068  39.3679535
  37.8894696  43.1143125  38.6491900  38.1070342  42.8466629  40.1232694
  38.1983329  24.4229809  40.2572153  38.5042206  23.5627172  39.9698068
  38.9235934  25.0147429  40.0571147  32.4704409  34.7183602  40.7648344
  32.5253019  33.7657438  40.6890821  31.6595611  34.8743041  41.2489643
  30.4096769  33.3360662  38.5238723  29.5964634  33.6354832  38.9303915
  30.9055763  32.9416351  39.2413205  32.5605347  43.3318419  40.4572988
  32.5181525  43.5579265  39.5281520  33.4768046  43.0981793  40.6058789
  36.0070980  33.8002486  47.3553617  36.3620368  34.0273959  48.2148083
  36.6543112  34.1320863  46.7330872  41.7368717  36.9220922  38.0602946
  41.5986616  37.1122518  37.1324135  41.3804936  37.6840305  38.5170997
  29.9010844  30.9079017  44.1399958  30.5410223  30.7667776  43.4422922
  29.0688374  30.6213531  43.7638560  41.7638097  38.9897449  43.0714218
  42.1974604  38.8972738  43.9197272  42.4769678  38.9654950  42.4334234
  30.6771147  40.2081448  40.2534951  31.4711746  39.7131768  40.0517526
  29.9662840  39.6799311  39.8902656  35.4965992  42.5899543  44.6047318
  35.5503014  43.1590480  45.3725034  34.6280773  42.7601428  44.2401355
  26.9039460  30.8779342  38.9172945  27.1646277  31.7924676  38.8082105
  27.7256632  30.4103785  39.0669558  28.3764385  32.2917099  46.0871770
  29.0487439  32.0834462  45.4384418  27.5494172  32.0939185  45.6477002
  42.6253647  39.0321150  45.6047103  42.8189537  39.9366960  45.8506378
  42.5254265  38.5728569  46.4385688  34.2789957  28.9179040  48.1037430
  33.6317872  29.6168990  48.0101907  35.0490973  29.3515184  48.4713679
  37.6868755  39.1827893  51.1787984  37.5354262  38.9538444  50.2618067
  37.6773435  40.1398494  51.1919329  34.4554092  36.7559805  46.1634250
  35.3846152  36.9070965  45.9903217  34.0345122  36.8443826  45.3082897
  33.2542423  40.7810470  43.9332788  33.1153509  40.4129254  44.8058726
  32.4657020  41.2958109  43.7616746  33.8490575  45.8819566  35.2758324
  34.0242331  45.4107609  36.0903947  33.1623363  46.5085332  35.5039585
  34.8047639  40.1592072  41.3221626  34.4697471  40.1192842  42.2179275
  34.3051584  39.4936788  40.8492036  28.7791883  35.5659702  46.8474207
  28.6411681  34.8339941  47.4485746  29.6896806  35.4768603  46.5658394
  31.4074183  35.2779662  46.3357886  32.1173802  34.6372854  46.2944505
  31.3643491  35.5292557  47.2584067  39.3960962  42.2147015  49.2564466
  39.3373508  41.5306235  48.5895049  39.7980480  42.9566005  48.8045092
  30.1203117  32.2644880  48.1553526  29.5840474  31.8135618  48.8075122
  29.5319826  32.3990788  47.4123990  28.4151661  49.0308929  42.0498184
  28.6548259  49.6627453  42.7277203  27.5720857  48.6796969  42.3363544
  39.3978369  40.1786599  47.4878445  38.5105148  39.8412521  47.6104844
  39.9676920  39.4469630  47.7247211  21.0507516  36.5110691  40.8121497
  21.7378556  36.1972421  40.2242512  20.8955645  37.4152055  40.5388748
  25.8542238  31.4000887  45.2406520  25.7700427  30.7926557  44.5056930
  25.0324945  31.8909906  45.2416017  32.9279523  44.8388051  44.4539688
  32.8549694  45.6443023  44.9658993  32.4856916  45.0380017  43.6287710
  32.7169302  44.0759821  37.9642510  31.9336824  44.6181502  38.0580734
  33.4162047  44.5933801  38.3636751  36.0265952  29.8854451  40.6076715
  36.5234652  29.1324413  40.2877786  35.2552934  29.9218768  40.0419925
  43.8795710  35.5894816  42.2495007  43.8685586  36.4719532  41.8788940
  43.0113089  35.2366367  42.0549544  35.3878206  44.7374885  46.6097847
  36.1006178  45.3722350  46.5373749  34.8968235  44.8338751  45.7937849
  37.1095733  38.6426138  38.1815139  36.1752012  38.7627601  38.0119843
  37.2872401  37.7398605  37.9175149  32.6100921  32.0271834  40.3348400
  32.2398709  31.4742874  41.0229306  33.1060014  31.4229967  39.7823400
  40.4968284  34.4843457  38.7165173  40.9628737  35.3171449  38.6425476
  40.9475785  34.0188439  39.4210431  30.4390120  42.4869329  47.4303418
  31.1399579  43.1205812  47.5832812  29.9685235  42.8284060  46.6699057
  38.5644515  40.8287279  35.7151325  38.8404359  40.7143873  36.6245199
  37.6949014  40.4304764  35.6763498  38.4684947  26.8524044  42.7556074
  37.5548027  27.0828271  42.9238281  38.8978049  26.9362488  43.6070107
  38.2391406  35.0413936  45.2555968  37.5862856  35.2889844  44.6008421
  38.6171786  34.2278075  44.9218446  35.1998579  45.0773630  39.3584139
  35.3820974  44.2595285  39.8211891  36.0231566  45.2941322  38.9209029
  35.5340745  44.0041815  36.6199187  36.0628511  43.4934269  36.0069349
  35.7968965  43.6884345  37.4844720  34.2878979  35.7833747  51.7422005
  33.6119616  35.6827877  52.4124381  35.1106613  35.6272961  52.2058003
  26.0357838  42.0205684  44.3634521  26.6211275  41.2749372  44.4962425
  25.8382676  42.3309641  45.2471184  28.8896493  45.0556931  39.3796963
  28.2206868  45.5403059  38.8961003  28.7509363  45.3026152  40.2940342
  20.6275492  34.5911284  43.0838964  20.6659592  34.0574875  43.8776082
  20.1215785  34.0646490  42.4649941  33.0301762  47.0900675  45.9779621
  33.5820070  47.2532296  46.7428707  33.3707955  47.6805113  45.3059646
  28.0066255  29.4375825  46.5801506  28.0707581  30.2990656  46.1678904
  27.9433375  28.8249826  45.8473865  27.4818527  31.5098957  50.2274540
  28.1090566  31.1276035  50.8412065  26.6246446  31.2913159  50.5930233
  36.1670149  45.0382650  42.9643304  36.0421288  44.2372390  42.4554249
  36.8249240  45.5328844  42.4757273  27.7878317  31.3931383  42.1420444
  27.0664903  32.0067351  42.0027917  28.5771573  31.9289148  42.0637090
  38.2305057  42.8391670  44.5922854  37.2835393  42.7197022  44.5201180
  38.5787830  41.9514169  44.6749115  30.5904631  28.7285809  48.4161095
  31.1139032  28.9748106  49.1787405  30.3716964  29.5605844  47.9964233
  35.2351490  42.6344387  40.7927206  35.0876453  41.7061094  40.9734776
  36.0604984  42.6564477  40.3084281  38.8385612  43.4572945  41.8792079
  39.7632160  43.2515807  41.7416530  38.6700916  43.2089347  42.7881420
  31.7957176  29.6699505  46.1010766  31.4553996  28.8707318  46.5031446
  31.0896182  29.9701215  45.5287599  32.4473647  26.7548817  44.5538089
  33.2699717  26.2809295  44.4316979  32.6911711  27.5339301  45.0536775
  35.2313005  30.4882224  35.7859323  35.4476619  31.3706862  35.4848151
  34.7507072  30.0968438  35.0564965  29.9712226  33.4467938  42.3630068
  29.8256807  33.7608241  43.2554349  29.4937430  34.0652838  41.8100966
  31.8308609  30.4370486  42.4110957  31.8170178  29.5411579  42.0743255
  32.5481037  30.4441149  43.0449243  33.6834740  30.8707826  44.4564085
  33.4252518  31.7924896  44.4548415  33.1519780  30.4738260  45.1464549
  38.6280929  43.9758613  37.2354170  38.8017806  43.4105035  36.4828022
  39.1209820  44.7759508  37.0533660  24.4457888  35.9873282  45.3017729
  23.9011356  36.7633090  45.4338003  25.3237238  36.3344086  45.1436850
  31.2345505  29.3184866  37.6798527  31.3561416  28.3901512  37.8789415
  30.9447547  29.3323552  36.7676843  34.1036695  27.0039776  40.8165247
  34.1258392  27.0679109  39.8617227  34.5204754  26.1644285  41.0105753
  44.4820320  36.7395036  38.8544470  44.9251466  35.9902361  38.4563593
  43.6046830  36.7305172  38.4718202  39.6156101  43.2925377  34.3351068
  40.3107006  43.9132070  34.5538383  39.9579251  42.4420728  34.6103446
  25.2323910  35.1143178  48.1947886  24.4905646  35.2625814  48.7812516
  24.9116654  35.3751444  47.3314635  41.5147524  40.7425083  35.8638399
  42.0398848  41.0812356  35.1387719  41.4269877  39.8072098  35.6801534
  33.1767573  44.6559156  47.9928276  33.4854699  44.4108303  48.8650975
  33.9743055  44.8605795  47.5047146  33.1988185  46.8097066  40.2233652
  32.7593175  46.3173445  40.9166509  33.9496302  46.2670034  39.9825727
  25.6780524  43.0008607  40.2258280  26.5038544  42.7012379  39.8456924
  25.3274576  42.2316229  40.6748069  30.6462057  42.3535075  42.2955954
  30.0242066  41.6905780  41.9958182  31.3166924  42.3796207  41.6129602
  23.8789129  40.9194933  41.1847214  23.0421037  40.4917108  41.0031215
  23.8512774  41.1127377  42.1218005  30.7186585  30.8316863  51.8888460
  30.7674740  31.7078986  51.5066230  31.2609099  30.2894256  51.3160103
  41.3239305  38.2250453  48.4822326  41.3737310  38.0600460  49.4237848
  41.2153229  37.3577712  48.0920206  30.2075564  40.9038999  35.7714414
  30.3563684  41.5874463  35.1181087  31.0142007  40.8844089  36.2863870
  38.6143068  34.2081381  49.7981632  39.5152930  34.0687846  49.5065630
  38.6891042  34.3735836  50.7379810  32.9485873  31.5848236  48.6434819
  32.0789182  31.8781802  48.3717407  33.1845353  32.1688681  49.3642082
  42.8257502  40.6447394  48.7264347  42.5342310  41.0077375  49.5627808
  42.2129633  39.9314403  48.5477679  44.0253184  38.2100274  41.2466917
  44.8600076  38.6490078  41.4104478  44.1612313  37.7338927  40.4275163
  41.0744690  35.7680009  47.1944405  41.5498812  35.9607655  46.3863256
  40.1510256  35.8239195  46.9487789  35.6524907  27.8027853  46.1600239
  36.1706851  28.5388879  45.8346728  35.2980040  28.1091846  46.9946998
  35.9037501  24.2228135  41.6801136  36.1839255  23.5551324  42.3061562
  36.6888108  24.4157231  41.1675799  33.7070969  43.3987129  33.2426162
  33.1344937  44.0177316  32.7896634  34.2803763  43.9486491  33.7766084
  39.7746359  32.6445769  45.4272711  40.7263782  32.7443867  45.4484935
  39.6049810  31.8524038  45.9370795  37.7960739  29.7301352  45.6132112
  37.2010671  30.0106365  44.9178600  37.5110435  30.2195253  46.3848853
  36.9268229  43.6824279  34.3734744  37.8598902  43.6169841  34.5767620
  36.8391442  44.5180546  33.9149277  39.5556246  42.9990149  31.3338692
  39.4769877  42.6650013  32.2274450  40.3765913  43.4911917  31.3330164
  42.2534437  35.8651889  44.5415010  42.2210757  34.9267889  44.7274694
  42.8635061  35.9435925  43.8080835  42.4028926  32.6562932  44.5873294
  41.8867974  31.8721389  44.4003222  43.2868874  32.3281649  44.7519813
  40.0639653  26.4003948  40.5469106  39.8664474  26.0919036  41.4312438
  40.6739358  27.1265587  40.6767036  48.0710987  36.9267896  43.6821047
  48.8014375  36.6653184  44.2428750  47.4617932  36.1896618  43.7223115
  46.1526284  35.0675758  44.2795498  45.4259448  34.9331723  43.6711990
  45.7373571  35.3752587  45.0852216  33.9756461  38.7865688  52.0442871
  34.8959470  38.9644287  52.2382918  33.9406044  37.8421733  51.8922571
  23.1938626  33.9804282  40.9696146  22.8741410  33.1269590  40.6770520
  22.6472054  34.1952860  41.7254113  26.9718533  36.6966723  44.6865653
  27.1904543  37.6283830  44.7053686  27.3844307  36.3374697  45.4720456
  33.8922751  27.2034808  36.6741341  33.0823479  26.8581893  37.0496587
  34.5807168  26.8942352  37.2628952  35.8213299  26.2812855  38.2965638
  36.3744338  26.7008308  38.9555661  36.0583385  25.3548603  38.3388594
  31.8446398  32.2699928  54.0768401  31.7443125  33.2194285  54.0080493
  31.6267940  31.9418167  53.2044472  23.0626886  37.6007193  42.9389268
  22.3690357  37.1861146  42.4259222  23.8099877  37.6427730  42.3422687
  39.1992106  28.3913380  37.8044302  38.6190775  29.0498184  37.4222354
  38.9328039  27.5690724  37.3931719  37.6495673  27.7918437  40.0065622
  38.1495451  27.9034972  39.1979941  38.2931281  27.4879490  40.6466431
  31.7077668  35.6997067  52.8933463  31.2244750  36.4997427  53.0997352
  31.7938607  35.7105012  51.9400907  24.9763628  37.5325447  40.8155282
  24.9534316  37.6313134  39.8637166  25.2864265  38.3790598  41.1372449
  27.6351006  39.5901602  44.9301897  28.5894259  39.5585544  44.8631828
  27.4363529  39.1292226  45.7452123  28.2250388  38.1602718  47.4972695
  29.0443277  38.6546797  47.5207532  28.4987196  37.2434686  47.4690262
  37.9816984  30.5513470  36.8600650  37.0942839  30.8363121  36.6420845
  38.3970973  30.3907234  36.0127927  41.3331520  30.5759991  40.5754989
  42.1091910  31.0656444  40.8479606  40.6079655  31.0018045  41.0326859
  43.7704079  31.2887610  41.6328930  44.3648570  31.0483346  40.9222238
  43.8430663  30.5694741  42.2602466  25.9901235  45.1321221  41.9472095
  25.8555703  44.3721622  41.3810093  25.5733297  45.8562121  41.4800884
  37.1260198  40.3158145  30.9548670  37.8296048  40.5208147  31.5706326
  36.4022846  40.8834907  31.2197754  41.7662814  31.8557738  37.9001060
  41.5099748  31.4554374  38.7309267  41.1415682  32.5701532  37.7751199
  46.0775152  34.5953811  40.4072351  45.5174710  34.6647001  41.1803913
  45.4718655  34.4194796  39.6871847  29.1470361  46.0290538  42.1590537
  29.0302745  46.9735971  42.0569228  28.3262807  45.7264100  42.5476337
  39.0346895  40.7540674  33.0047130  39.8692499  40.3221873  32.8224605
  38.8731238  40.5822688  33.9324025  23.4785302  32.4940852  48.1964892
  24.1244166  31.9839806  48.6852117  23.2702453  33.2309533  48.7708317
  30.1724875  46.6818800  45.3746466  31.0752121  46.7142410  45.6912961
  29.9462245  45.7519251  45.3892802  31.9278477  45.4349787  42.0356544
  30.9774108  45.4351648  41.9220917  32.2310963  44.6882521  41.5192579
  35.8141032  23.3523673  38.2034725  35.0473428  22.7982160  38.3491407
  36.2251737  23.4245542  39.0648876  27.8182793  29.6408469  52.2939906
  28.6814255  29.2845274  52.5043230  27.2448204  29.3022364  52.9815310
  40.3307692  53.0773230  39.0260722  39.7672557  52.9863167  38.2577010
  40.2160087  52.2573134  39.5063215  37.8772124  54.5724421  41.8644943
  38.6693416  54.2315246  41.4491242  38.1168774  54.6819396  42.7847096
  39.8362878  53.8333335  34.7362322  40.6093754  53.2862322  34.5975198
  40.1888277  54.6977584  34.9476783  42.1729156  49.9926001  32.3680772
  42.4254677  49.4707522  31.6064235  41.2353715  49.8292146  32.4707455
  47.2172439  48.9961779  40.1755515  48.0035528  48.5781202  39.8245932
  47.4811143  49.9007871  40.3437163  41.8925445  51.8954107  34.5705147
  41.7761703  51.2199010  35.2386231  42.0027705  51.4086481  33.7537300
  44.2356986  51.3564254  38.2751836  43.8715193  50.8294875  38.9864757
  45.0924101  50.9662723  38.1018321  43.8762473  46.3854153  33.2713184
  44.0436875  47.2534390  33.6383655  43.6859642  46.5481435  32.3474474
  40.0850287  51.2984929  40.9715719  39.1600784  51.1661143  41.1793411
  40.3334700  52.0779148  41.4685662  43.8551693  48.8411811  34.2559851
  43.7351319  49.2868862  35.0945331  43.1604282  49.1897129  33.6973389
  37.4459098  50.9418203  41.8059508  37.5751479  51.1952682  42.7198920
  36.7656550  51.5345911  41.4864163  49.5536760  49.3133284  35.0840185
  50.4654616  49.5460671  34.9087883  49.0446407  49.8970328  34.5215264
  46.8972734  45.4891320  43.3330046  46.0357213  45.7872574  43.6246784
  46.9235169  45.7061719  42.4011079  43.7134304  54.0333511  39.7403852
  44.1772649  54.3121214  38.9508474  43.4491102  53.1316955  39.5576942
  42.6503190  50.1556663  36.5493417  43.3527233  50.6077707  37.0167343
  42.3183818  49.5140482  37.1773310  36.3928524  48.4140216  41.8510551
  35.6027578  48.6697744  41.3750661  36.8839771  49.2288554  41.9562591
  38.3443269  48.7784795  38.8094027  37.5474432  48.8903489  39.3277523
  38.1168861  49.1171447  37.9434918  34.6766227  48.6670706  44.2825541
  34.9274265  49.5517716  44.5483117  35.2125775  48.4875308  43.5100633
  37.3426352  54.4873044  37.1983447  37.8550872  55.2816294  37.3489012
  37.9949065  53.7899334  37.1317049  39.1521237  57.6038800  39.2806200
  39.3287865  58.5256765  39.0927184  39.9478070  57.2897219  39.7100580
  47.2389418  40.4928167  45.1554416  46.8953687  41.3829809  45.0793526
  47.6068381  40.3029825  44.2924001  35.3075269  52.8161698  37.9743018
  36.1450491  53.2258706  37.7576726  35.4853536  51.8761140  37.9443212
  47.2039701  50.4836779  33.6626851  46.6886324  51.2541383  33.9015238
  46.9317009  49.8101915  34.2859912  44.7886812  45.3286479  38.7212089
  43.9328408  44.9393330  38.5417728  45.2013764  45.4078440  37.8611875
  46.3185958  42.8632823  43.1203649  45.8150754  42.8262958  42.3071454
  46.6116565  43.7725565  43.1800306  42.5628844  42.9471552  42.1269831
  43.4281841  42.7514361  41.7675720  42.6306353  42.7181904  43.0539187
  46.9926004  48.3563871  35.4886632  46.6876139  48.6710020  36.3396775
  47.9456446  48.4345291  35.5313965  45.4372436  54.5154094  37.1379586
  44.9093797  53.7806854  36.8252823  44.9359938  55.2928770  36.8919554
  40.1691163  45.1773760  39.4986197  40.7434915  44.9548942  38.7659390
  40.7562146  45.2462455  40.2514799  40.4960750  47.2078221  33.5182083
  39.6598063  47.5452908  33.8391357  40.3565520  47.0727201  32.5809220
  42.4713831  42.0515009  38.2261267  41.8178243  41.7364026  37.6017882
  42.4294305  41.4290750  38.9521090  43.5825036  52.3334304  30.1414559
  42.6752098  52.1023558  30.3405708  44.0796068  51.5371924  30.3288540
  45.7051571  48.5396943  42.5508914  44.7874133  48.7611890  42.3930603
  46.1211715  48.6143253  41.6920622  46.4886619  49.9388358  37.6811595
  47.2358438  50.4509756  37.3718717  46.7578209  49.6172411  38.5415988
  44.7613269  52.4346899  34.6638549  43.8524489  52.1505932  34.7611019
  44.7908353  52.8545978  33.8041856  48.9365456  46.9745475  39.6630384
  48.1988213  46.4622861  39.9940627  49.1892230  46.5345856  38.8513661
  49.0377084  39.7521727  40.2572153  49.3435960  38.8919090  39.9698068
  49.7629688  40.3439347  40.0571147  35.3301440  50.1552413  38.6453751
  35.1325840  49.5621774  37.9204818  34.7748104  49.8504623  39.3629690
  44.4589357  53.9755643  32.0026628  44.0208787  53.2591502  31.5432265
  45.1999798  54.2031758  31.4411719  41.2490523  48.6652579  38.5238723
  40.4358389  48.9646750  38.9303915  41.7449517  48.2708268  39.2413205
  40.7404598  46.2370935  44.1399958  41.3803977  46.0959694  43.4422922
  39.9082129  45.9505448  43.7638560  41.5164902  55.5373365  40.2534951
  42.3105500  55.0423686  40.0517526  40.8056594  55.0091229  39.8902656
  37.8247665  49.6816447  36.3294703  36.8945254  49.6200903  36.5464665
  37.9205137  49.1592400  35.5331345  37.7433214  46.2071260  38.9172945
  38.0040032  47.1216593  38.8082105  38.5650387  45.7395703  39.0669558
  39.2158140  47.6209017  46.0871770  39.8881193  47.4126379  45.4384418
  38.3887926  47.4231103  45.6477002  48.5800585  52.8340024  31.5958685
  47.9629755  52.1086853  31.4991738  48.1117073  53.5949385  31.2525759
  40.3699131  47.0525449  30.7179989  39.4928597  46.9314250  30.3542236
  40.8456884  46.2611527  30.4658878  31.8901271  51.8402608  40.8121497
  32.5772311  51.5264339  40.2242512  31.7349399  52.7443973  40.5388748
  36.6935993  46.7292805  45.2406520  36.6094182  46.1218475  44.5056930
  35.8718699  47.2201823  45.2416017  46.8659707  45.2146369  40.6076715
  47.3628406  44.4616331  40.2877786  46.0946688  45.2510685  40.0419925
  47.9489488  53.9718056  38.1815139  47.0145766  54.0919518  38.0119843
  48.1266156  53.0690523  37.9175149  43.4494676  47.3563752  40.3348400
  43.0792463  46.8034792  41.0229306  43.9453768  46.7521885  39.7823400
  51.3362039  49.8135375  38.7165173  51.8022491  50.6463367  38.6425476
  51.7869539  49.3480357  39.4210431  49.3078702  42.1815962  42.7556074
  48.3941781  42.4120189  42.9238281  49.7371803  42.2654406  43.6070107
  31.4669247  49.9203202  43.0838964  31.5053346  49.3866793  43.8776082
  30.9609540  49.3938407  42.4649941  38.8460009  44.7667742  46.5801506
  38.9101336  45.6282573  46.1678904  38.7827129  44.1541744  45.8473865
  35.0977825  48.6467304  36.1592895  35.3931266  47.7377982  36.1059949
  34.1965860  48.6255043  35.8373897  38.6272072  46.7223301  42.1420444
  37.9058657  47.3359268  42.0027917  39.4165327  47.2581065  42.0637090
  36.8265666  46.3281402  36.2832220  36.4978372  45.4478781  36.1007326
  37.1805037  46.2729070  37.1708610  39.9407489  46.6154371  36.6507698
  40.2803562  47.1440293  35.9286306  40.3879610  46.9534778  37.4266265
  42.6350930  44.9991422  46.1010766  42.2947750  44.1999235  46.5031446
  41.9289936  45.2993133  45.5287599  43.2867402  42.0840735  44.5538089
  44.1093471  41.6101213  44.4316979  43.5305465  42.8631218  45.0536775
  41.9275636  45.1128993  34.8500991  42.6483999  45.4910246  34.3464708
  41.3040941  45.8317870  34.9535969  46.0706759  45.8174142  35.7859323
  46.2870374  46.6998780  35.4848151  45.5900826  45.4260355  35.0564965
  40.8105981  48.7759855  42.3630068  40.6650561  49.0900158  43.2554349
  40.3331184  49.3944756  41.8100966  42.6702364  45.7662403  42.4110957
  42.6563932  44.8703497  42.0743255  43.3874792  45.7733067  43.0449243
  44.5228494  46.1999743  44.4564085  44.2646272  47.1216814  44.4548415
  43.9913535  45.8030178  45.1464549  35.2851643  51.3165200  45.3017729
  34.7405111  52.0925008  45.4338003  36.1630993  51.6636004  45.1436850
  42.0739259  44.6476784  37.6798527  42.1955171  43.7193430  37.8789415
  41.7841302  44.6615469  36.7676843  44.9430450  42.3331694  40.8165247
  44.9652147  42.3971027  39.8617227  45.3598509  41.4936203  41.0105753
  36.5174278  58.3300525  40.2258280  37.3432298  58.0304296  39.8456924
  36.1668330  57.5608147  40.6748069  34.7182883  56.2486851  41.1847214
  33.8814792  55.8209025  41.0031215  34.6906529  56.4419294  42.1218005
  41.0469318  56.2330916  35.7714414  41.1957439  56.9166381  35.1181087
  41.8535762  56.2136006  36.2863870  38.8021951  52.2596094  36.7775483
  38.5567993  51.3558424  36.9755694  38.9717866  52.2613244  35.8354961
  38.0717599  47.9924451  34.2761645  37.3786844  48.0668806  33.6201681
  37.8269351  47.2284795  34.7983162  46.7431255  39.5520053  41.6801136
  47.0233009  38.8843242  42.3061562  47.5281862  39.7449148  41.1675799
  44.9311522  50.0639859  30.5842214  45.8770627  49.9346067  30.6530632
  44.5525767  49.3254521  31.0611643  50.9033407  41.7295865  40.5469106
  50.7058228  41.4210954  41.4312438  51.5133113  42.4557504  40.6767036
  43.1154440  47.9889836  30.5197100  42.2085895  47.6922948  30.5959813
  43.3930421  47.6919654  29.6531386  34.0332380  49.3096199  40.9696146
  33.7135164  48.4561507  40.6770520  33.4865808  49.5244777  41.7254113
  44.7316505  42.5326725  36.6741341  43.9217234  42.1873810  37.0496587
  45.4200922  42.2234269  37.2628952  46.6607054  41.6104772  38.2965638
  47.2138092  42.0300226  38.9555661  46.8977140  40.6840520  38.3388594
  41.8853224  44.8476771  30.6609079  42.7472388  45.1731669  30.9204896
  42.0703568  44.0608267  30.1482145  33.9020640  52.9299111  42.9389268
  33.2084111  52.5153063  42.4259222  34.6493631  52.9719647  42.3422687
  50.0385861  43.7205297  37.8044302  49.4584530  44.3790101  37.4222354
  49.7721793  42.8982642  37.3931719  48.4889427  43.1210355  40.0065622
  48.9889205  43.2326890  39.1979941  49.1325035  42.8171408  40.6466431
  35.8157383  52.8617364  40.8155282  35.7928071  52.9605052  39.8637166
  36.1258019  53.7082515  41.1372449  48.8210739  45.8805388  36.8600650
  47.9336594  46.1655038  36.6420845  49.2364728  45.7199151  36.0127927
  52.1725275  45.9051909  40.5754989  52.9485665  46.3948361  40.8479606
  51.4473409  46.3309963  41.0326859  48.7951762  51.3959924  37.0750940
  48.7386964  51.8528475  36.2358573  49.3480105  50.6350608  36.8973783
  52.6056568  47.1849656  37.9001060  52.3493503  46.7846291  38.7309267
  51.9809436  47.8993450  37.7751199  49.5286542  52.5864705  34.3703469
  49.4735346  52.4208976  33.4291914  48.9032597  53.2940738  34.5265659
  34.3179057  47.8232769  48.1964892  34.9637920  47.3131723  48.6852117
  34.1096208  48.5601451  48.7708317  42.8382667  42.0872814  33.9488788
  42.8261337  43.0314654  34.1057059  43.7306089  41.9042959  33.6548249
  46.6534787  38.6815591  38.2034725  45.8867183  38.1274077  38.3491407
  47.0645492  38.7537459  39.0648876  22.7933369  -2.4283960  29.7609138
  22.4551880  -2.5442895  28.8729673  23.6623137  -2.8292794  29.7410144
  18.6520184  -0.5748483  25.7506029  18.0885050  -0.6658546  24.9822317
  18.5372579  -1.3948579  26.2308522  23.2753152  -1.2749108  35.7195344
  23.2641793  -1.6696310  34.8475847  23.4373791  -2.0083035  36.3129115
  16.1984616   0.9202709  28.5890250  16.9905908   0.5793533  28.1736549
  16.4381267   1.0297684  29.5092403  24.2319743   3.0922485  21.0620494
  23.5807723   3.6776565  20.6754508  25.0264106   3.6228680  21.1215532
  18.1575370   0.1811622  21.4607628  18.9306246  -0.3659391  21.3220504
  18.5100769   1.0455871  21.6722090  19.9960413   1.5088004  34.6674528
  19.7050279   2.4133635  34.5521194  20.6317397   1.5504532  35.3818597
  20.9216620  -1.1135147  31.2575887  21.5180192  -1.3379125  30.5432850
  20.9791591  -1.8550402  31.8601335  25.7095008   0.7812917  21.5989478
  25.0740841   0.8547543  22.3110383  25.3792415   1.3706515  20.9208558
  20.2137937  -1.7567606  21.2950453  20.0974195  -2.4322703  21.9631538
  20.3240197  -2.2435232  20.4782606  22.5569478  -2.2957459  24.9997143
  22.1927685  -2.8226838  25.7110064  23.4136594  -2.6858990  24.8263628
  24.9550298   1.1949420  31.6624321  24.6551021   2.0974458  31.5540129
  24.6101357   0.9281603  32.5145474  18.4062779  -2.3536784  27.6961026
  17.4813276  -2.4860570  27.9038718  18.6547193  -1.5742564  28.1930968
  19.9371078   7.9593740  24.6295289  19.8595107   8.9101565  24.7083770
  19.3332721   7.6139612  25.2870215  20.6834680  -2.0592941  36.8474623
  21.4249364  -1.5207897  36.5709447  19.9771665  -1.4326653  37.0046175
  26.1590019   0.0836199  35.4446784  26.5673376  -0.3581390  34.7001417
  25.4367281  -0.4911173  35.6980977  26.4818834   0.6437390  29.1999073
  25.8527697   0.8083104  28.4975141  26.0944496   1.0578999  29.9710037
  30.3608066   1.5791828  26.5543437  29.6759104   1.9590729  26.0040470
  30.4451915   2.1887154  27.2875385  22.0346796   0.3811798  26.4649158
  22.4985142   0.6599501  25.6753781  21.7703594  -0.5204758  26.2822249
  18.9270877  -0.0716721  29.4028922  19.4972234   0.3570548  28.7646406
  19.5178989  -0.3534136  30.1013107  28.7304826   2.1023742  31.3261138
  29.5522269   1.7003929  31.0443820  28.7267228   1.9991976  32.2777254
  22.4961429   1.6507785  33.4821848  22.5605862   2.1128193  34.3180020
  21.7872353   1.0205150  33.6104158  22.2109447   3.3175893  23.3500829
  22.0755121   4.1627429  23.7785677  22.7519259   3.5195170  22.5866763
  15.6638844   0.8351331  23.9228754  16.1763365   1.6294581  24.0734319
  16.3161557   0.1377621  23.8562355  17.4733729   3.9517087  26.0051507
  17.6500357   4.8735052  25.8172491  18.2690562   3.6375506  26.4345887
  23.8377923   3.9399459  37.4801171  23.3941777   3.1535838  37.1622075
  24.4995137   4.1278610  36.8145062  18.5965044   5.4695261  32.0061849
  19.1472469   5.3412324  31.2338843  17.7576520   5.7690150  31.6556742
  25.9359161   4.2202259  35.5082572  25.9177636   5.0411140  35.0162841
  26.8579081   4.0956335  35.7332713  22.3932215   1.7346389  36.3506081
  22.9260552   0.9734677  36.1205389  21.8646296   1.4420041  37.0930235
  23.7584928   0.8632381  23.8624893  23.2306290   0.1285141  23.5498130
  23.2572431   1.6407058  23.6164861  28.7377774  -0.9418598  28.9791939
  28.0801448  -0.2519337  29.0672067  29.5418173  -0.5522166  29.3225925
  21.9037528  -1.3187408  16.8659866  20.9964590  -1.5498155  17.0651015
  22.4008560  -2.1149789  17.0533847  24.8105607   7.3910099  19.7856552
  24.1367306   7.6941795  20.3941510  25.1971429   8.1939179  19.4362009
  23.0825762  -1.2174814  21.3883856  22.1736981  -1.5015781  21.4856325
  23.1120845  -0.7975735  20.5287163  28.3145029   2.3931776  25.1575023
  27.8607356   1.5522686  25.2140214  27.6838996   3.0293174  25.4949803
  26.7577968   4.2308273  26.0924841  27.0500943   4.7913330  25.3737207
  27.2676589   4.5236834  26.8478000  22.7801849   0.3233930  18.7271934
  22.3421279  -0.3930211  18.2677572  23.5212290   0.5510045  18.1657026
  21.7211593   5.0088624  27.1818295  21.6787772   5.2349470  26.2526827
  22.6374292   4.7751998  27.3304096  30.9244344   0.6667654  29.7959524
  31.3580850   0.5742943  30.6442578  31.6375925   0.6425155  29.1579540
  19.8377394   1.8851653  26.9780257  20.6317993   1.3901973  26.7762832
  19.1269087   1.3569516  26.6147963  24.6572239   4.2669748  31.3292625
  24.7109261   4.8360685  32.0970341  23.7887020   4.4371633  30.9646662
  31.7859893   0.7091355  32.3292410  31.9795783   1.6137165  32.5751685
  31.6860512   0.2498774  33.1630995  26.8475002   0.8598097  37.9033290
  26.6960508   0.6308649  36.9863374  26.8379682   1.8168699  37.9164635
  23.6160338  -1.5669990  32.8879557  24.5452398  -1.4158830  32.7148524
  23.1951368  -1.4785969  32.0328203  22.4148670   2.4580675  30.6578094
  22.2759756   2.0899459  31.5304032  21.6263266   2.9728314  30.4862052
  23.0096822   7.5589771  22.0003631  23.1848578   7.0877814  22.8149254
  22.3229610   8.1855537  22.2284892  23.9653885   1.8362277  28.0466932
  23.6303718   1.7963047  28.9424582  23.4657831   1.1706993  27.5737342
  17.9398129  -2.7570093  33.5719513  17.8017927  -3.4889854  34.1731052
  18.8503053  -2.8461193  33.2903701  26.9013077  -0.8181688  18.3203992
  26.2842248  -1.5434860  18.2237045  26.4329565  -0.0572328  17.9771066
  20.5680430  -3.0450133  33.0603193  21.2780049  -3.6856941  33.0189811
  20.5249738  -2.7937238  33.9829374  28.5567209   3.8917220  35.9809772
  28.4979755   3.2076440  35.3140355  28.9586727   4.6336210  35.5290398
  17.5757907  10.7079134  28.7743491  17.8154506  11.3397658  29.4522510
  16.7327104  10.3567174  29.0608850  28.5584616   1.8556804  34.2123752
  27.6711395   1.5182726  34.3350151  29.1283167   1.1239835  34.4492517
  22.0885769   6.5158256  31.1784995  22.0155941   7.3213228  31.6904300
  21.6463162   6.7150222  30.3533016  21.8775549   5.7530026  24.6887817
  21.0943071   6.2951707  24.7826041  22.5768294   6.2704006  25.0882058
  24.5484453   6.4145090  33.3343154  25.2612425   7.0492555  33.2619055
  24.0574482   6.5108956  32.5183156  26.2701980   0.3196343  24.9060445
  25.3358259   0.4397806  24.7365150  26.4478648  -0.5831190  24.6420455
  19.5996366   4.1639534  34.1548725  20.3005826   4.7976017  34.3078119
  19.1291481   4.5054265  33.3944364  27.7250762   2.5057484  22.4396632
  28.0010606   2.3914078  23.3490506  26.8555261   2.1074968  22.4008805
  24.3604826   6.7543834  26.0829445  24.5427221   5.9365490  26.5457198
  25.1837812   6.9711527  25.6454335  24.6946992   5.6812020  23.3444494
  25.2234758   5.1704474  22.7314656  24.9575211   5.3654550  24.2090027
  23.4485225  -2.5396048  38.4667312  22.7725862  -2.6401918  39.1369687
  24.2712859  -2.6956834  38.9303309  15.1964084   3.6975889  31.0879827
  15.7817521   2.9519577  31.2207731  14.9988923   4.0079846  31.9716491
  18.0502740   6.7327136  26.1042270  17.3813115   7.2173264  25.6206310
  17.9115609   6.9796357  27.0185648  22.1908008   8.7670880  32.7024928
  22.7426316   8.9302501  33.4674013  22.5314202   9.3575318  32.0304953
  27.0418883   3.5932137  38.5573582  27.5858787   4.2062096  38.0628537
  26.4605727   4.1511716  39.0740595  25.3276396   6.7152855  29.6888610
  25.2027535   5.9142595  29.1799556  25.9855487   7.2099049  29.2002580
  27.3911304   4.5161875  31.3168160  26.4441639   4.3967227  31.2446487
  27.7394077   3.6284373  31.3994422  24.3957737   4.3114592  27.5172512
  24.2482700   3.3831299  27.6980082  25.2211231   4.3334682  27.0329588
  27.9991859   5.1343150  28.6037385  28.9238407   4.9286012  28.4661836
  27.8307162   4.8859552  29.5126727  27.7887175   5.6528818  23.9599477
  27.9624053   5.0875240  23.2073329  28.2816067   6.4529713  23.7778967
  28.7762348   4.9695582  21.0596375  29.4713252   5.5902275  21.2783690
  29.1185498   4.1190933  21.3348753  30.6753771   2.4195288  22.5883706
  31.2005095   2.7582560  21.8633026  30.5876123   1.4842303  22.4046840
  22.3373820   6.3329361  34.7173582  22.6460946   6.0878508  35.5896282
  23.1349302   6.5376000  34.2292453  22.3594432   8.4867271  26.9478959
  21.9199422   7.9943650  27.6411816  23.1102549   7.9440239  26.7071034
  14.8386771   4.6778812  26.9503587  15.6644791   4.3782584  26.5702231
  14.4880823   3.9086434  27.3993376  19.8068304   4.0305280  29.0201261
  19.1848313   3.3675985  28.7203488  20.4773171   4.0566412  28.3374908
  13.0395376   2.5965138  27.9092521  12.2027284   2.1687313  27.7276522
  13.0119021   2.7897582  28.8463312  30.3647677   3.0528191  37.8934904
  29.5743221   3.0352330  37.3539403  30.1281032   3.5916485  38.6483940
  19.3681811   2.5809203  22.4959721  19.5169931   3.2644668  21.8426394
  20.1748254   2.5614293  23.0109177  31.9863749   2.3217599  35.4509654
  31.6948557   2.6847580  36.2873115  31.3735880   1.6084608  35.2722986
  17.1234444  -1.3925619  23.5020790  16.8780486  -2.2963289  23.7001000
  17.2930358  -1.3908468  22.5600268  22.8677216   5.0757334  19.9671469
  22.2951183   5.6947521  19.5141940  23.4410010   5.6256696  20.5011390
  26.0874476   5.3594484  21.0980051  27.0205149   5.2940046  21.3012926
  25.9997689   6.1950751  20.6394583  28.7162493   4.6760354  18.0583998
  28.6376124   4.3420218  18.9519756  29.5372159   5.1682122  18.0575471
  23.1362707   0.4635893  38.7688178  24.0565717   0.6414492  38.9628225
  23.1012290  -0.4808062  38.6167877  16.1324780  -1.6263073  31.4110959
  16.3510790  -0.6945965  31.4298993  16.5450554  -1.9855098  32.1965763
  20.8683915  -2.6232728  39.6178770  20.3850997  -1.8232368  39.8242659
  20.9544854  -2.6124783  38.6646214  14.1369875  -0.7904348  27.5400589
  14.1140563  -0.6916661  26.5882472  14.4470511   0.0560803  27.8617755
  16.7957253   1.2671807  31.6547204  17.7500506   1.2355749  31.5877135
  16.5969776   0.8062430  32.4697429  17.3856635  -0.1627077  34.2218001
  18.2049524   0.3317001  34.2452838  17.6593443  -1.0795109  34.1935569
  15.1507481   6.8091426  28.6717401  15.0161949   6.0491827  28.1055399
  14.7339544   7.5332326  28.2046190  26.2866444   1.9928350  17.6793977
  26.9902295   2.1978352  18.2951632  25.5629093   2.5605112  17.9443060
  18.3076607   7.7060743  28.8835844  18.1908991   8.6506176  28.7814534
  17.4869054   7.4034305  29.2721643  28.1953142   2.4310879  19.7292437
  29.0298746   1.9992077  19.5469912  28.0337485   2.2592893  20.6569331
  27.8499034  -1.0657008  21.0948776  27.7947838  -1.2312736  20.1537220
  27.2245089  -0.3580975  21.2510966  25.1644941   1.2391904  40.4202339
  26.0336101   1.4132556  40.0588974  24.6851693   2.0586321  40.2978068
  19.3331121   8.3589005  32.0991772  20.2358368   8.3912615  32.4158267
  19.1068492   7.4289456  32.1138108  21.0884723   7.1119992  28.7601851
  20.1380354   7.1121853  28.6466223  21.3917210   6.3652726  28.2437886
  36.8237417  12.9480530  29.8247613  37.4615827  12.8287277  29.1210954
  36.7058260  13.8961374  29.8835566  33.6327123  12.9007958  29.7609138
  33.2945635  12.7849023  28.8729673  34.5016891  12.4999123  29.7410144
  29.4913939  14.7543435  25.7506029  28.9278804  14.6633372  24.9822317
  29.3766334  13.9343339  26.2308522  34.1146906  14.0542810  35.7195344
  34.1035547  13.6595608  34.8475847  34.2767546  13.3208883  36.3129115
  27.0378371  16.2494626  28.5890250  27.8299663  15.9085451  28.1736549
  27.2775021  16.3589601  29.5092403  30.8354167  16.8379922  34.6674528
  30.5444033  17.7425553  34.5521194  31.4711152  16.8796449  35.3818597
  31.7610374  14.2156770  31.2575887  32.3573946  13.9912793  30.5432850
  31.8185346  13.4741516  31.8601335  31.3335403  11.6696206  19.0926078
  31.5860923  11.1477727  18.3309541  30.3959962  11.5062351  19.1952762
  36.3778685  10.6731984  26.9000822  37.1641775  10.2551407  26.5491239
  36.6417390  11.5778076  27.0682470  36.5488763  16.1104834  21.5989478
  35.9134596  16.1839461  22.3110383  36.2186169  16.6998433  20.9208558
  41.7787113  10.6107217  27.8033800  42.5112285  10.0406434  28.0371630
  41.0226468  10.2228818  28.2440306  31.0531691  13.5724312  21.2950453
  30.9367949  12.8969215  21.9631538  31.1633951  13.0856685  20.4782606
  33.3963232  13.0334459  24.9997143  33.0321440  12.5065080  25.7110064
  34.2530348  12.6432928  24.8263628  39.3012533   4.3228791  32.2628409
  38.9695858   5.1924202  32.0389624  38.7058146   4.0065075  32.9422439
  33.0368719   8.0624358  19.9958491  33.2043122   8.9304595  20.3628962
  32.8465888   8.2251640  19.0719780  35.7944052  16.5241337  31.6624321
  35.4944776  17.4266376  31.5540129  35.4495112  16.2573520  32.5145474
  29.2456534  12.9755134  27.6961026  28.3207030  12.8431348  27.9038718
  29.4940947  13.7549353  28.1930968  39.1941196   9.0423877  29.3421759
  38.2858074   8.9739286  29.0480520  39.1428792   9.5195822  30.1703584
  33.0157940  10.5182016  20.9805158  32.8957565  10.9639067  21.8190638
  32.3210529  10.8667333  20.4218696  26.6065345  12.6188408  28.5304815
  26.7357726  12.8722887  29.4444227  25.9262796  13.2116116  28.2109470
  33.2682062  10.4613523  37.2856656  32.4915396  11.0207443  37.2759521
  33.9072625  10.9470306  37.8071526  41.0602843   7.2440316  31.1199633
  40.4177223   7.5372849  30.4739427  40.5557771   7.1293236  31.9252829
  38.7143006  10.9903489  21.8085492  39.6260862  11.2230876  21.6333189
  38.2052653  11.5740533  21.2460570  31.5228434  13.2698976  36.8474623
  32.2643119  13.8084020  36.5709447  30.8165420  13.8965265  37.0046175
  36.9983774  15.4128117  35.4446784  37.4067130  14.9710527  34.7001417
  36.2761035  14.8380744  35.6980977  33.3514844  10.3500724  32.8180341
  34.1976039  10.7740137  32.9614990  33.2913482   9.6934348  33.5118905
  37.3212589  15.9729307  29.1999073  36.6921451  16.1375022  28.4975141
  36.9338251  16.3870917  29.9710037  41.2001821  16.9083745  26.5543437
  40.5152859  17.2882647  26.0040470  41.2845670  17.5179072  27.2875385
  36.5014289   8.0105092  34.4761515  36.2575221   8.7647152  33.9395791
  36.7774220   8.3890440  35.3108762  38.4552752  14.5543704  33.1538781
  38.6669647  15.1975464  32.4773162  38.4082500  13.7206021  32.6860711
  36.0578981   7.1661525  30.0575353  35.1963460   7.4642779  30.3492090
  36.0841416   7.3831924  29.1256385  29.7664632  15.2575197  29.4028922
  30.3365989  15.6862465  28.7646406  30.3572743  14.9757782  30.1013107
  31.8109437  11.8326868  23.2738724  32.5133480  12.2847912  23.7412650
  31.4790065  11.1910687  23.9018617  30.2589798  10.4238625  37.6489933
  29.6288459  11.1054905  37.8825330  30.1525886  10.3121706  36.7043071
  25.5534771  10.0910421  28.5755857  24.7633825  10.3467949  28.0995968
  26.0446018  10.9058758  28.6807898  39.5698580  17.4315660  31.3261138
  40.3916024  17.0295847  31.0443820  39.5660983  17.3283894  32.2777254
  27.5049516  10.4555000  25.5339334  26.7080679  10.5673694  26.0522830
  27.2775108  10.7941652  24.6680224  33.3355184  16.9799703  33.4821848
  33.3999616  17.4420110  34.3180020  32.6266107  16.3497068  33.6104158
  23.8372474  10.3440911  31.0070848  24.0880512  11.2287921  31.2728424
  24.3732022  10.1645513  30.2345940  47.6604573  13.7754408  27.6746109
  46.9068282  13.2061806  27.5190114  47.7952114  13.7417073  28.6216744
  29.5370541   4.7259390  40.0115184  29.1437486   4.1725589  40.6862828
  30.3536681   5.0369969  40.4021702  26.5032599  16.1643249  23.9228754
  27.0157119  16.9586499  24.0734319  27.1555311  15.4669539  23.8562355
  32.4538502   6.1417269  37.6035441  33.1948215   6.7424423  37.5239903
  32.6856425   5.3994907  37.0453483  27.5979840  11.3273637  35.8813670
  27.4833355  10.4258894  36.1820769  26.7424358  11.5737333  35.5298487
  34.6771678  19.2691377  37.4801171  34.2335532  18.4827756  37.1622075
  35.3388891  19.4570528  36.8145062  36.7752916  19.5494177  35.5082572
  36.7571391  20.3703058  35.0162841  37.6972836  19.4248252  35.7332713
  33.2325970  17.0638306  36.3506081  33.7654307  16.3026595  36.1205389
  32.7040051  16.7711958  37.0930235  36.3995665   2.1698372  31.8799722
  36.0559934   3.0600014  31.8038833  36.7674627   1.9800030  31.0169307
  24.4681515  14.4931903  24.6988324  25.3056737  14.9028911  24.4822032
  24.6459783  13.5531345  24.6688518  36.3645947  12.1606984  20.3872157
  35.8492571  12.9311588  20.6260545  36.0923256  11.4872120  21.0105219
  33.9493059   7.0056684  25.4457396  33.0934655   6.6163535  25.2663034
  34.3620010   7.0848645  24.5857181  35.4792205   4.5403028  29.8448956
  34.9757001   4.5033163  29.0316761  35.7722812   5.4495770  29.9045612
  31.7235091   4.6241757  28.8515137  32.5888088   4.4284566  28.4921027
  31.7912600   4.3952109  29.7784494  41.3380222  14.9139338  22.3225331
  40.5609664  14.5750498  21.8780493  42.0171703  14.9191961  21.6480296
  36.1532251  10.0334076  22.2131939  35.8482386  10.3480225  23.0642082
  37.1062693  10.1115495  22.2559272  39.5771529  14.3873319  28.9791939
  38.9195203  15.0772581  29.0672067  40.3811928  14.7769751  29.3225925
  29.3297410   6.8543965  26.2231504  29.9041162   6.6319147  25.4904697
  29.9168393   6.9232660  26.9760105  38.3876987  12.7417692  27.0295881
  38.9008869  13.3747684  27.5317590  39.0378211  12.1418888  26.6639241
  29.6566997   8.8848426  20.2427389  28.8204309   9.2223113  20.5636664
  29.5171767   8.7497406  19.3054526  31.6320078   3.7285214  24.9506573
  30.9784490   3.4134231  24.3263188  31.5900552   3.1060955  25.6766396
  32.7431283  14.0104509  16.8659866  31.8358344  13.7793763  17.0651015
  33.2402315  13.2142128  17.0533847  34.8657818  10.2167148  29.2754221
  33.9480380  10.4382095  29.1175909  35.2817962  10.2913458  28.4165928
  35.6492866  11.6158563  24.4056901  36.3964685  12.1279961  24.0964023
  35.9184455  11.2942616  25.2661295  33.9219516  14.1117104  21.3883856
  33.0130735  13.8276137  21.4856325  33.9514600  14.5316183  20.5287163
  39.1538784  17.7223694  25.1575023  38.7001111  16.8814603  25.2140214
  38.5232750  18.3585092  25.4949803  38.0971703   8.6515680  26.3875691
  37.3594460   8.1393066  26.7185933  38.3498477   8.2116061  25.5758968
  24.4907686  11.8322618  25.3699058  24.2932086  11.2391979  24.6450124
  23.9354350  11.5274828  26.0874997  32.4704410  11.7245725  27.4893651
  32.5253020  10.7719561  27.4136128  31.6595612  11.8805164  27.9734949
  33.6195604  15.6525848  18.7271934  33.1815034  14.9361707  18.2677572
  34.3606045  15.8801963  18.1657026  30.4096770  10.3422784  25.2484030
  29.5964636  10.6416955  25.6549222  30.9055764   9.9478473  25.9658512
  36.0070982  10.8064609  34.0798924  36.3620369  11.0336082  34.9393390
  36.6543113  11.1382986  33.4576179  41.7368719  13.9283045  24.7848253
  41.5986617  14.1184641  23.8569442  41.3804938  14.6902428  25.2416304
  29.9010845   7.9141140  30.8645265  30.5410224   7.7729899  30.1668228
  29.0688375   7.6275653  30.4883867  41.7638098  15.9959572  29.7959524
  42.1974605  15.9034861  30.6442578  42.4769679  15.9717072  29.1579540
  35.4965993  19.5961666  31.3292625  35.5503015  20.1652602  32.0970341
  34.6280775  19.7663551  30.9646662  26.9853912  11.3586652  23.0540010
  26.0551500  11.2971108  23.2709972  27.0811384  10.8362605  22.2576651
  26.9039461   7.8841465  25.6418252  27.1646279   8.7986798  25.5327412
  27.7256634   7.4165907  25.7914864  28.3764387   9.2979222  32.8117076
  29.0487440   9.0896584  32.1629725  27.5494173   9.1001308  32.3722308
  42.6253648  16.0383272  32.3292410  42.8189538  16.9429083  32.5751685
  42.5254266  15.5790691  33.1630995  34.2789959   5.9241163  34.8282737
  33.6317874   6.6231113  34.7347213  35.0490974   6.3577307  35.1958985
  37.6868757  16.1890015  37.9033290  37.5354263  15.9600567  36.9863374
  37.6773436  17.1460617  37.9164635  34.4554093  13.7621928  32.8879557
  35.3846153  13.9133088  32.7148524  34.0345123  13.8505949  32.0328203
  33.2542425  17.7872592  30.6578094  33.1153510  17.4191377  31.5304032
  32.4657021  18.3020232  30.4862052  28.7791884  12.5721825  33.5719513
  28.6411682  11.8402064  34.1731052  29.6896807  12.4830725  33.2903701
  37.7406832  14.5110229  18.3203992  37.1236002  13.7857058  18.2237045
  37.2723320  15.2719590  17.9771066  31.4074185  12.2841784  33.0603193
  32.1173803  11.6434977  33.0189811  31.3643493  12.5354679  33.9829374
  39.3960963  19.2209138  35.9809772  39.3373509  18.5368358  35.3140355
  39.7980482  19.9628128  35.5290398  30.1203118   9.2707002  34.8798832
  29.5840475   8.8197741  35.5320429  29.5319827   9.4052911  34.1369297
  29.5305377   8.7295654  17.4425296  28.6534844   8.6084454  17.0787543
  30.0063131   7.9381732  17.1904185  39.3978370  17.1848722  34.2123752
  38.5105149  16.8474643  34.3350151  39.9676922  16.4531753  34.4492517
  21.0507518  13.5172813  27.5366803  21.7378557  13.2034543  26.9487819
  20.8955646  14.4214178  27.2634055  25.8542240   8.4063010  31.9651827
  25.7700428   7.7988680  31.2302237  25.0324946   8.8972028  31.9661323
  36.0265954   6.8916573  27.3322022  36.5234653   6.1386536  27.0123092
  35.2552935   6.9280890  26.7665231  43.8795711  12.5956939  28.9740314
  43.8685587  13.4781654  28.6034247  43.0113090  12.2428490  28.7794851
  35.3878207  21.7437008  33.3343154  36.1006180  22.3784473  33.2619055
  34.8968236  21.8400874  32.5183156  37.1095734  15.6488261  24.9060445
  36.1752013  15.7689723  24.7365150  37.2872403  14.7460727  24.6420455
  32.6100922   9.0333956  27.0593707  32.2398710   8.4804997  27.7474612
  33.1060015   8.4292090  26.5068707  40.4968286  11.4905580  25.4410480
  40.9628738  12.3233572  25.3670782  40.9475786  11.0250562  26.1455738
  38.5644517  17.8349401  22.4396632  38.8404361  17.7205996  23.3490506
  37.6949015  17.4366886  22.4008805  38.4684948   3.8586167  29.4801381
  37.5548028   4.0890394  29.6483588  38.8978050   3.9424611  30.3315413
  38.2391407  12.0476059  31.9801275  37.5862857  12.2951966  31.3253728
  38.6171787  11.2340197  31.6463752  34.2878980  12.7895870  38.4667312
  33.6119617  12.6889999  39.1369687  35.1106614  12.6335084  38.9303309
  20.6275494  11.5973407  29.8084270  20.6659593  11.0636997  30.6021388
  20.1215787  11.0708612  29.1895248  28.0066256   6.4437947  33.3046813
  28.0707582   7.3052778  32.8924210  27.9433376   5.8311949  32.5719171
  27.4818529   8.5161080  36.9519847  28.1090567   8.1338157  37.5657371
  26.6246447   8.2975282  37.3175539  37.8812637  18.9224055  38.5573582
  38.4252541  19.5354013  38.0628537  37.2999482  19.4803633  39.0740595
  24.2584071  10.3237509  22.8838202  24.5537512   9.4148187  22.8305255
  23.3572107  10.3025248  22.5619204  27.7878318   8.3993505  28.8665750
  27.0664904   9.0129473  28.7273224  28.5771574   8.9351270  28.7882396
  38.2305058  19.8453793  31.3168160  37.2835394  19.7259144  31.2446487
  38.5787832  18.9576291  31.3994422  30.5904632   5.7347932  35.1406402
  31.1139034   5.9810229  35.9032711  30.3716965   6.5667967  34.7209539
  25.9871913   8.0051607  23.0077527  25.6584619   7.1248985  22.8252633
  26.3411284   7.9499275  23.8953916  29.1013736   8.2924576  23.3753005
  29.4409809   8.8210498  22.6531613  29.5485856   8.6304982  24.1511571
  38.8385614  20.4635068  28.6037385  39.7632161  20.2577929  28.4661836
  38.6700917  20.2151469  29.5126727  31.7957177   6.6761627  32.8256073
  31.4553997   5.8769440  33.2276753  31.0896183   6.9763338  32.2532906
  32.4473649   3.7610940  31.2783396  33.2699718   3.2871418  31.1562286
  32.6911712   4.5401423  31.7782082  31.0881883   6.7899198  21.5746297
  31.8090246   7.1680451  21.0710014  30.4647187   7.5088075  21.6781275
  35.2313006   7.4944347  22.5104630  35.4476620   8.3768985  22.2093458
  34.7507073   7.1030560  21.7810272  29.9712227  10.4530060  29.0875374
  29.8256808  10.7670363  29.9799656  29.4937431  11.0714960  28.5346273
  31.8308610   7.4432608  29.1356264  31.8170179   6.5473701  28.7988562
  32.5481038   7.4503272  29.7694550  33.6834741   7.8769948  31.1809391
  33.4252519   8.7987019  31.1793722  33.1519781   7.4800383  31.8709855
  38.6280930  20.9820735  23.9599477  38.8017807  20.4167158  23.2073329
  39.1209821  21.7821630  23.7778967  24.4457890  12.9935405  32.0263035
  23.9011358  13.7695213  32.1583310  25.3237239  13.3406209  31.8682157
  31.2345506   6.3246988  24.4043834  31.3561417   5.3963635  24.6034721
  30.9447549   6.3385674  23.4922149  34.1036697   4.0101899  27.5410554
  34.1258393   4.0741232  26.5862533  34.5204756   3.1706408  27.7351060
  44.4820321  13.7457158  25.5789776  44.9251467  12.9964484  25.1808900
  43.6046831  13.7367295  25.1963508  39.6156102  20.2987500  21.0596375
  40.3107007  20.9194193  21.2783690  39.9579252  19.4482851  21.3348753
  25.2323911  12.1205301  34.9193192  24.4905647  12.2687936  35.5057823
  24.9116656  12.3813566  34.0559942  41.5147525  17.7487205  22.5883706
  42.0398849  18.0874478  21.8633026  41.4269878  16.8134221  22.4046840
  33.1767574  21.6621279  34.7173582  33.4854701  21.4170426  35.5896282
  33.9743056  21.8667918  34.2292453  23.8789130  17.9257056  27.9092521
  23.0421038  17.4979230  27.7276522  23.8512776  18.1189499  28.8463312
  30.7186586   7.8378986  38.6133767  30.7674741   8.7141109  38.2311536
  31.2609100   7.2956379  38.0405410  41.2041431  18.3820109  37.8934904
  40.4136975  18.3644248  37.3539403  40.9674786  18.9208403  38.6483940
  41.3239307  15.2312575  35.2067632  41.3737311  15.0662583  36.1483155
  41.2153230  14.3639834  34.8165513  38.6143069  11.2143503  36.5226939
  39.5152932  11.0749968  36.2310937  38.6891043  11.3797958  37.4625116
  32.9485874   8.5910358  35.3680125  32.0789184   8.8843924  35.0962714
  33.1845355   9.1750803  36.0887389  42.8257503  17.6509517  35.4509654
  42.5342312  18.0139497  36.2873115  42.2129635  16.9376525  35.2722986
  44.0253186  15.2162397  27.9712224  44.8600077  15.6552201  28.1349784
  44.1612314  14.7401050  27.1520470  41.0744692  12.7742132  33.9189712
  41.5498813  12.9669778  33.1108563  40.1510257  12.8301317  33.6733095
  27.9628198  13.9366299  23.5020790  27.7174240  13.0328629  23.7001000
  28.1324113  13.9383449  22.5600268  35.6524908   4.8089975  32.8845546
  36.1706852   5.5451002  32.5592034  35.2980041   5.1153968  33.7192305
  27.2323846   9.6694656  21.0006951  26.5393091   9.7439011  20.3446987
  26.9875598   8.9055000  21.5228468  39.7746361   9.6507892  32.1518017
  40.7263783   9.7505989  32.1730241  39.6049811   8.8586160  32.6616102
  37.7960740   6.7363475  32.3377418  37.2010672   7.0168488  31.6423907
  37.5110437   7.2257376  33.1094159  39.5556247  20.0052272  18.0583998
  39.4769879  19.6712136  18.9519756  40.3765914  20.4974040  18.0575471
  42.2534438  12.8714011  31.2660317  42.2210758  11.9330012  31.4520001
  42.8635062  12.9498048  30.5326142  42.4028927   9.6625055  31.3118600
  41.8867975   8.8783511  31.1248529  43.2868875   9.3343771  31.4765120
  40.0639654   3.4066070  27.2714413  39.8664475   3.0981159  28.1557745
  40.6739359   4.1327709  27.4012343  48.0710988  13.9330018  30.4066354
  48.8014377  13.6715306  30.9674057  47.4617934  13.1958740  30.4468422
  46.1526285  12.0737881  31.0040805  45.4259449  11.9393846  30.3957297
  45.7373572  12.3814709  31.8097523  33.9756462  15.7927810  38.7688178
  34.8959471  15.9706409  38.9628225  33.9406045  14.8483856  38.6167877
  32.2760686   9.6660041  17.2442406  31.3692142   9.3693153  17.3205120
  32.5536667   9.3689859  16.3776692  23.1938627  10.9866404  27.6941453
  22.8741411  10.1331712  27.4015827  22.6472055  11.2014982  28.4499420
  26.9718534  13.7028845  31.4110959  27.1904544  14.6345953  31.4298993
  27.3844308  13.3436820  32.1965763  33.8922752   4.2096930  23.3986648
  33.0823480   3.8644015  23.7741894  34.5807169   3.9004474  23.9874259
  35.8213300   3.2874977  25.0210944  36.3744339   3.7070431  25.6800967
  36.0583387   2.3610725  25.0633900  31.8446400   9.2762051  40.8013708
  31.7443127  10.2256408  40.7325799  31.6267942   8.9480290  39.9289778
  31.0459471   6.5246976  17.3854385  31.9078635   6.8501874  17.6450203
  31.2309815   5.7378472  16.8727451  23.0626887  14.6069316  29.6634574
  22.3690358  14.1923268  29.1504529  23.8099878  14.6489852  29.0667993
  39.1992107   5.3975502  24.5289608  38.6190777   6.0560306  24.1467661
  38.9328040   4.5752847  24.1177026  37.6495674   4.7980560  26.7310929
  38.1495452   4.9097095  25.9225248  38.2931282   4.4941613  27.3711737
  31.7077670  12.7059190  39.6178770  31.2244751  13.5059550  39.8242659
  31.7938609  12.7167135  38.6646214  24.9763629  14.5387569  27.5400589
  24.9534317  14.6375257  26.5882472  25.2864266  15.3852720  27.8617755
  28.2250389  15.1664840  34.2218001  29.0443278  15.6608919  34.2452838
  28.4987197  14.2496809  34.1935569  37.9816985   7.5575593  23.5845957
  37.0942841   7.8425243  23.3666151  38.3970975   7.3969356  22.7373234
  41.3331522   7.5822114  27.3000296  42.1091912   8.0718566  27.5724913
  40.6079656   8.0080168  27.7572165  43.7704080   8.2949733  28.3574237
  44.3648571   8.0545469  27.6467545  43.8430664   7.5756864  28.9847773
  37.1260199  17.3220267  17.6793977  37.8296049  17.5270270  18.2951632
  36.4022848  17.8897029  17.9443060  37.9558009  13.0730129  23.7996247
  37.8993211  13.5298680  22.9603879  38.5086352  12.3120813  23.6219090
  41.7662815   8.8619861  24.6246366  41.5099749   8.4616496  25.4554574
  41.1415683   9.5763654  24.4996506  46.0775153  11.6015934  27.1317658
  45.5174711  11.6709123  27.9049220  45.4718656  11.4256918  26.4117154
  39.0346896  17.7602797  19.7292437  39.8692500  17.3283995  19.5469912
  38.8731239  17.5884810  20.6569331  38.6892789  14.2634910  21.0948776
  38.6341592  14.0979181  20.1537220  38.0638844  14.9710943  21.2510966
  23.4785304   9.5002974  34.9210198  24.1244167   8.9901928  35.4097423
  23.2702455  10.2371656  35.4953624  36.0038696  16.5683822  40.4202339
  36.8729855  16.7424474  40.0588974  35.5245447  17.3878239  40.2978068
  31.9988914   3.7643019  20.6734094  31.9867584   4.7084859  20.8302365
  32.8912336   3.5813164  20.3793556  27.8182795   6.6470591  39.0185212
  28.6814256   6.2907396  39.2288537  27.2448205   6.3084486  39.7060617
  47.6631171  28.2772448  29.8247613  48.3009581  28.1579195  29.1210954
  47.5452014  29.2253292  29.8835566  44.4720878  28.2299876  29.7609138
  44.1339389  28.1140941  28.8729673  45.3410646  27.8291041  29.7410144
  40.3307693  30.0835352  25.7506029  39.7672559  29.9925289  24.9822317
  40.2160088  29.2635257  26.2308522  44.9540661  29.3834728  35.7195344
  44.9429302  28.9887526  34.8475847  45.1161300  28.6500800  36.3129115
  45.9107252  33.7506320  21.0620494  45.2595232  34.3360400  20.6754508
  46.7051615  34.2812515  21.1215532  39.8362879  30.8395457  21.4607628
  40.6093755  30.2924444  21.3220504  40.1888278  31.7039706  21.6722090
  41.6747922  32.1671839  34.6674528  41.3837788  33.0717470  34.5521194
  42.3104906  32.2088367  35.3818597  42.6004129  29.5448688  31.2575887
  43.1967701  29.3204710  30.5432850  42.6579100  28.8033433  31.8601335
  42.1729157  26.9988123  19.0926078  42.4254678  26.4769645  18.3309541
  41.2353716  26.8354269  19.1952762  47.2172440  26.0023902  26.9000822
  48.0035529  25.5843325  26.5491239  47.4811144  26.9069994  27.0682470
  47.3882517  31.4396752  21.5989478  46.7528350  31.5131378  22.3110383
  47.0579924  32.0290351  20.9208558  52.6180867  25.9399135  27.8033800
  53.3506039  25.3698352  28.0371630  51.8620223  25.5520735  28.2440306
  41.8925446  28.9016229  21.2950453  41.7761704  28.2261133  21.9631538
  42.0027706  28.4148603  20.4782606  44.2356987  28.3626376  24.9997143
  43.8715194  27.8356997  25.7110064  45.0924103  27.9724845  24.8263628
  50.1406287  19.6520709  32.2628409  49.8089612  20.5216120  32.0389624
  49.5451901  19.3356993  32.9422439  43.8762474  23.3916276  19.9958491
  44.0436876  24.2596512  20.3628962  43.6859643  23.5543558  19.0719780
  46.6337807  31.8533255  31.6624321  46.3338530  32.7558294  31.5540129
  46.2888866  31.5865438  32.5145474  40.0850288  28.3047052  27.6961026
  39.1600785  28.1723266  27.9038718  40.3334702  29.0841271  28.1930968
  50.0334951  24.3715795  29.3421759  49.1251828  24.3031204  29.0480520
  49.9822547  24.8487740  30.1703584  43.8551695  25.8473933  20.9805158
  43.7351320  26.2930984  21.8190638  43.1604283  26.1959251  20.4218696
  41.6158587  38.6177575  24.6295289  41.5382616  39.5685400  24.7083770
  41.0120230  38.2723448  25.2870215  44.1075817  25.7905441  37.2856656
  43.3309151  26.3499361  37.2759521  44.7466380  26.2762224  37.8071526
  51.8996597  22.5732233  31.1199633  51.2570977  22.8664767  30.4739427
  51.3951526  22.4585154  31.9252829  49.5536761  26.3195407  21.8085492
  50.4654617  26.5522793  21.6333189  49.0446408  26.9032451  21.2460570
  42.3622189  28.5990894  36.8474623  43.1036873  29.1375938  36.5709447
  41.6559174  29.2257183  37.0046175  47.8377528  30.7420034  35.4446784
  48.2460885  30.3002445  34.7001417  47.1154790  30.1672662  35.6980977
  44.1908599  25.6792641  32.8180341  45.0369794  26.1032055  32.9614990
  44.1307236  25.0226266  33.5118905  48.1606343  31.3021225  29.1999073
  47.5315206  31.4666939  28.4975141  47.7732005  31.7162835  29.9710037
  52.0395575  32.2375663  26.5543437  51.3546613  32.6174564  26.0040470
  52.1239424  32.8470990  27.2875385  47.3408044  23.3397010  34.4761515
  47.0968976  24.0939070  33.9395791  47.6167974  23.7182357  35.3108762
  49.2946507  29.8835622  33.1538781  49.5063402  30.5267382  32.4773162
  49.2476255  29.0497939  32.6860711  46.8972736  22.4953443  30.0575353
  46.0357215  22.7934696  30.3492090  46.9235170  22.7123842  29.1256385
  43.7134305  31.0395633  26.4649158  44.1772651  31.3183336  25.6753781
  43.4491103  30.1379078  26.2822249  42.6503191  27.1618786  23.2738724
  43.3527234  27.6139829  23.7412650  42.3183820  26.5202604  23.9018617
  41.0983553  25.7530542  37.6489933  40.4682213  26.4346823  37.8825330
  40.9919640  25.6413624  36.7043071  50.4092335  32.7607577  31.3261138
  51.2309778  32.3587765  31.0443820  50.4054737  32.6575812  32.2777254
  38.3443270  25.7846917  25.5339334  37.5474434  25.8965612  26.0522830
  38.1168863  26.1233570  24.6680224  44.1748938  32.3091621  33.4821848
  44.2393371  32.7712028  34.3180020  43.4659862  31.6788986  33.6104158
  43.8896956  33.9759728  23.3500829  43.7542630  34.8211264  23.7785677
  44.4306768  34.1779006  22.5866763  40.3764295  20.0551308  40.0115184
  39.9831241  19.5017507  40.6862828  41.1930436  20.3661887  40.4021702
  37.3426353  31.4935166  23.9228754  37.8550874  32.2878416  24.0734319
  37.9949066  30.7961457  23.8562355  43.2932256  21.4709187  37.6035441
  44.0341970  22.0716340  37.5239903  43.5250179  20.7286825  37.0453483
  38.4373594  26.6565554  35.8813670  38.3227109  25.7550812  36.1820769
  37.5818112  26.9029251  35.5298487  45.5165432  34.5983295  37.4801171
  45.0729286  33.8119673  37.1622075  46.1782646  34.7862445  36.8145062
  40.2752553  36.1279096  32.0061849  40.8259978  35.9996160  31.2338843
  39.4364029  36.4273985  31.6556742  47.6146670  34.8786095  35.5082572
  47.5965145  35.6994976  35.0162841  48.5366590  34.7540170  35.7332713
  44.0719724  32.3930224  36.3506081  44.6048061  31.6318512  36.1205389
  43.5433805  32.1003876  37.0930235  47.2389419  17.4990290  31.8799722
  46.8953689  18.3891932  31.8038833  47.6068382  17.3091948  31.0169307
  47.2039702  27.4898901  20.3872157  46.6886325  28.2603506  20.6260545
  46.9317010  26.8164037  21.0105219  44.7886813  22.3348602  25.4457396
  43.9328409  21.9455452  25.2663034  45.2013765  22.4140563  24.5857181
  46.3185960  19.8694945  29.8448956  45.8150755  19.8325080  29.0316761
  46.6116566  20.7787688  29.9045612  42.5628846  19.9533675  28.8515137
  43.4281842  19.7576484  28.4921027  42.6306354  19.7244027  29.7784494
  52.1773976  30.2431256  22.3225331  51.4003419  29.9042415  21.8780493
  52.8565457  30.2483879  21.6480296  46.9926005  25.3625993  22.2131939
  46.6876141  25.6772142  23.0642082  47.9456447  25.4407413  22.2559272
  45.4372437  31.5216217  23.8624893  44.9093799  30.7868976  23.5498130
  44.9359940  32.2990893  23.6164861  50.4165283  29.7165237  28.9791939
  49.7588957  30.4064498  29.0672067  51.2205682  30.1061669  29.3225925
  40.1691165  22.1835883  26.2231504  40.7434916  21.9611064  25.4904697
  40.7562147  22.2524577  26.9760105  49.2270742  28.0709610  27.0295881
  49.7402624  28.7039602  27.5317590  49.8771966  27.4710805  26.6639241
  40.4960752  24.2140344  20.2427389  39.6598064  24.5515030  20.5636664
  40.3565521  24.0789324  19.3054526  42.4713832  19.0577132  24.9506573
  41.8178245  18.7426149  24.3263188  42.4294306  18.4352872  25.6766396
  43.5825037  29.3396427  16.8659866  42.6752099  29.1085680  17.0651015
  44.0796069  28.5434046  17.0533847  46.4893116  38.0493934  19.7856552
  45.8154815  38.3525631  20.3941510  46.8758938  38.8523014  19.4362009
  45.7051573  25.5459065  29.2754221  44.7874134  25.7674012  29.1175909
  46.1211716  25.6205376  28.4165928  46.4886620  26.9450481  24.4056901
  47.2358439  27.4571878  24.0964023  46.7578210  26.6234534  25.2661295
  44.7613271  29.4409022  21.3883856  43.8524490  29.1568055  21.4856325
  44.7908354  29.8608100  20.5287163  49.9932538  33.0515611  25.1575023
  49.5394865  32.2106521  25.2140214  49.3626505  33.6877010  25.4949803
  48.9365458  23.9807597  26.3875691  48.1988214  23.4684983  26.7185933
  49.1892231  23.5407979  25.5758968  48.4365477  34.8892108  26.0924841
  48.7288452  35.4497165  25.3737207  48.9464098  35.1820669  26.8478000
  49.0377085  16.7583849  26.9817460  49.3435962  15.8981213  26.6943375
  49.7629690  17.3501469  26.7816454  43.3098165  27.0537642  27.4893651
  43.3646774  26.1011479  27.4136128  42.4989367  27.2097081  27.9734949
  44.4589358  30.9817765  18.7271934  44.0208788  30.2653624  18.2677572
  45.1999799  31.2093880  18.1657026  41.2490525  25.6714702  25.2484030
  40.4358390  25.9708873  25.6549222  41.7449519  25.2770391  25.9658512
  43.3999102  35.6672459  27.1818295  43.3575281  35.8933305  26.2526827
  44.3161801  35.4335834  27.3304096  46.8464736  26.1356527  34.0798924
  47.2014124  26.3628000  34.9393390  47.4936867  26.4674903  33.4576179
  52.5762473  29.2574962  24.7848253  52.4380372  29.4476558  23.8569442
  52.2198692  30.0194345  25.2416304  40.7404599  23.2433058  30.8645265
  41.3803979  23.1021817  30.1668228  39.9082130  22.9567571  30.4883867
  52.6031853  31.3251489  29.7959524  53.0368359  31.2326779  30.6442578
  53.3163433  31.3008990  29.1579540  46.3359748  34.9253584  31.3292625
  46.3896770  35.4944520  32.0970341  45.4674529  35.0955469  30.9646662
  37.8247667  26.6878570  23.0540010  36.8945255  26.6263025  23.2709972
  37.9205139  26.1654523  22.2576651  39.2158141  24.6271140  32.8117076
  39.8881194  24.4188502  32.1629725  38.3887928  24.4293226  32.3722308
  53.4647402  31.3675190  32.3292410  53.6583292  32.2721001  32.5751685
  53.3648021  30.9082609  33.1630995  45.1183713  21.2533081  34.8282737
  44.4711628  21.9523030  34.7347213  45.8884728  21.6869225  35.1958985
  48.5262511  31.5181933  37.9033290  48.3748017  31.2892485  36.9863374
  48.5167190  32.4752534  37.9164635  45.2947847  29.0913846  32.8879557
  46.2239907  29.2425005  32.7148524  44.8738877  29.1797866  32.0328203
  44.0936179  33.1164510  30.6578094  43.9547265  32.7483294  31.5304032
  43.3050775  33.6312149  30.4862052  44.6884331  38.2173606  22.0003631
  44.8636087  37.7461650  22.8149254  44.0017119  38.8439373  22.2284892
  45.6441394  32.4946113  28.0466932  45.3091227  32.4546883  28.9424582
  45.1445340  31.8290829  27.5737342  39.6185638  27.9013743  33.5719513
  39.4805436  27.1693982  34.1731052  40.5290562  27.8122643  33.2903701
  48.5800586  29.8402147  18.3203992  47.9629757  29.1148975  18.2237045
  48.1117074  30.6011507  17.9771066  42.2467939  27.6133702  33.0603193
  42.9567558  26.9726894  33.0189811  42.2037247  27.8646597  33.9829374
  50.2354718  34.5501055  35.9809772  50.1767264  33.8660276  35.3140355
  50.6374236  35.2920045  35.5290398  40.9596873  24.5998920  34.8798832
  40.4234230  24.1489658  35.5320429  40.3713581  24.7344829  34.1369297
  39.2545416  41.3662969  28.7743491  39.4942015  41.9981493  29.4522510
  38.4114613  41.0151009  29.0608850  40.3699132  24.0587571  17.4425296
  39.4928598  23.9376372  17.0787543  40.8456885  23.2673650  17.1904185
  50.2372125  32.5140639  34.2123752  49.3498904  32.1766561  34.3350151
  50.8070676  31.7823671  34.4492517  36.6935994  23.7354928  31.9651827
  36.6094183  23.1280597  31.2302237  35.8718701  24.2263946  31.9661323
  43.7673278  37.1742092  31.1784995  43.6943450  37.9797063  31.6904300
  43.3250671  37.3734058  30.3533016  43.5563058  36.4113862  24.6887817
  42.7730580  36.9535542  24.7826041  44.2555803  36.9287841  25.0882058
  46.8659708  22.2208491  27.3322022  47.3628408  21.4678453  27.0123092
  46.0946690  22.2572808  26.7665231  54.7189465  27.9248857  28.9740314
  54.7079342  28.8073572  28.6034247  53.8506845  27.5720408  28.7794851
  46.2271962  37.0728926  33.3343154  46.9399934  37.7076391  33.2619055
  45.7361990  37.1692792  32.5183156  47.9489489  30.9780178  24.9060445
  47.0145767  31.0981641  24.7365150  48.1266157  30.0752645  24.6420455
  43.4494677  24.3625874  27.0593707  43.0792464  23.8096915  27.7474612
  43.9453769  23.7584008  26.5068707  51.3362040  26.8197498  25.4410480
  51.8022492  27.6525489  25.3670782  51.7869541  26.3542479  26.1455738
  41.2783875  34.8223369  34.1548725  41.9793335  35.4559852  34.3078119
  40.8078990  35.1638101  33.3944364  49.4038271  33.1641319  22.4396632
  49.6798115  33.0497914  23.3490506  48.5342770  32.7658804  22.4008805
  49.3078703  19.1878085  29.4801381  48.3941783  19.4182312  29.6483588
  49.7371804  19.2716529  30.3315413  49.0785161  27.3767977  31.9801275
  48.4256612  27.6243884  31.3253728  49.4565541  26.5632115  31.6463752
  46.0392335  37.4127670  26.0829445  46.2214730  36.5949326  26.5457198
  46.8625321  37.6295362  25.6454335  46.3734501  36.3395855  23.3444494
  46.9022267  35.8288310  22.7314656  46.6362720  36.0238385  24.2090027
  45.1272734  28.1187788  38.4667312  44.4513371  28.0181917  39.1369687
  45.9500368  27.9627001  38.9303309  39.7290249  37.3910972  26.1042270
  39.0600624  37.8757099  25.6206310  39.5903118  37.6380192  27.0185648
  43.8695517  39.4254715  32.7024928  44.4213825  39.5886337  33.4674013
  44.2101711  40.0159153  32.0304953  38.8460010  21.7729865  33.3046813
  38.9101337  22.6344696  32.8924210  38.7827131  21.1603867  32.5719171
  38.3212283  23.8452997  36.9519847  38.9484322  23.4630075  37.5657371
  37.4640202  23.6267199  37.3175539  48.7206392  34.2515973  38.5573582
  49.2646296  34.8645931  38.0628537  48.1393236  34.8095551  39.0740595
  47.0063905  37.3736691  29.6888610  46.8815044  36.5726431  29.1799556
  47.6642996  37.8682884  29.2002580  38.6272073  23.7285423  28.8665750
  37.9058659  24.3421391  28.7273224  39.4165329  24.2643188  28.7882396
  49.0698813  35.1745711  31.3168160  48.1229148  35.0551062  31.2446487
  49.4181586  34.2868209  31.3994422  41.4298386  21.0639850  35.1406402
  41.9532788  21.3102146  35.9032711  41.2110720  21.8959884  34.7209539
  46.0745246  34.9698427  27.5172512  45.9270209  34.0415134  27.6980082
  46.8998740  34.9918518  27.0329588  39.9407491  23.6216494  23.3753005
  40.2803563  24.1502415  22.6531613  40.3879611  23.9596900  24.1511571
  49.6779368  35.7926986  28.6037385  50.6025916  35.5869847  28.4661836
  49.5094671  35.5443387  29.5126727  43.2867403  19.0902857  31.2783396
  44.1093472  18.6163335  31.1562286  43.5305467  19.8693341  31.7782082
  41.9275638  22.1191116  21.5746297  42.6484000  22.4972368  21.0710014
  41.3040942  22.8379992  21.6781275  46.0706761  22.8236265  22.5104630
  46.2870375  23.7060902  22.2093458  45.5900828  22.4322478  21.7810272
  40.8105982  25.7821978  29.0875374  40.6650563  26.0962281  29.9799656
  40.3331186  26.4006878  28.5346273  42.6702365  22.7724526  29.1356264
  42.6563934  21.8765619  28.7988562  43.3874793  22.7795190  29.7694550
  44.5228496  23.2061866  31.1809391  44.2646273  24.1278937  31.1793722
  43.9913536  22.8092301  31.8709855  49.4674684  36.3112653  23.9599477
  49.6411562  35.7459076  23.2073329  49.9603576  37.1113548  23.7778967
  42.0739261  21.6538906  24.4043834  42.1955172  20.7255552  24.6034721
  41.7841303  21.6677592  23.4922149  44.9430451  19.3393817  27.5410554
  44.9652148  19.4033150  26.5862533  45.3598510  18.4998325  27.7351060
  55.3214075  29.0749076  25.5789776  55.7645221  28.3256401  25.1808900
  54.4440586  29.0659212  25.1963508  50.4549857  35.6279418  21.0596375
  51.1500761  36.2486110  21.2783690  50.7973007  34.7774769  21.3348753
  52.3541280  33.0779123  22.5883706  52.8792604  33.4166396  21.8633026
  52.2663632  32.1426138  22.4046840  44.0161329  36.9913197  34.7173582
  44.3248455  36.7462343  35.5896282  44.8136811  37.1959835  34.2292453
  44.0381941  39.1451106  26.9478959  43.5986931  38.6527485  27.6411816
  44.7890058  38.6024074  26.7071034  41.5580340  23.1670903  38.6133767
  41.6068496  24.0433026  38.2311536  42.1002854  22.6248297  38.0405410
  52.0435186  33.7112027  37.8934904  51.2530730  33.6936166  37.3539403
  51.8068541  34.2500320  38.6483940  52.1633061  30.5604493  35.2067632
  52.2131066  30.3954501  36.1483155  52.0546984  29.6931752  34.8165513
  41.0469320  33.2393039  22.4959721  41.1957440  33.9228503  21.8426394
  41.8535763  33.2198129  23.0109177  49.4536823  26.5435421  36.5226939
  50.3546686  26.4041886  36.2310937  49.5284798  26.7089876  37.4625116
  43.7879629  23.9202276  35.3680125  42.9182938  24.2135842  35.0962714
  44.0239109  24.5042721  36.0887389  53.6651258  32.9801435  35.4509654
  53.3736066  33.3431415  36.2873115  53.0523389  32.2668443  35.2722986
  54.8646940  30.5454314  27.9712224  55.6993832  30.9844118  28.1349784
  55.0006069  30.0692968  27.1520470  51.9138446  28.1034049  33.9189712
  52.3892568  28.2961696  33.1108563  50.9904011  28.1593235  33.6733095
  38.8021953  29.2658216  23.5020790  38.5567995  28.3620546  23.7001000
  38.9717867  29.2675367  22.5600268  46.4918663  20.1381893  32.8845546
  47.0100606  20.8742920  32.5592034  46.1373795  20.4445886  33.7192305
  38.0717600  24.9986574  21.0006951  37.3786845  25.0730929  20.3446987
  37.8269352  24.2346918  21.5228468  46.7431257  16.5582175  28.4046442
  47.0233010  15.8905364  29.0306869  47.5281864  16.7511271  27.8921106
  44.5464725  35.7341169  19.9671469  43.9738692  36.3531356  19.5141940
  45.1197519  36.2840531  20.5011390  50.6140115  24.9799809  32.1518017
  51.5657538  25.0797907  32.1730241  50.4443565  24.1878078  32.6616102
  48.6354495  22.0655393  32.3377418  48.0404427  22.3460405  31.6423907
  48.3504191  22.5549293  33.1094159  47.7661985  36.0178319  21.0980051
  48.6992658  35.9523881  21.3012926  47.6785198  36.8534586  20.6394583
  50.3950002  35.3344190  18.0583998  50.3163633  35.0004053  18.9519756
  51.2159668  35.8265958  18.0575471  53.0928193  28.2005929  31.2660317
  53.0604513  27.2621930  31.4520001  53.7028817  28.2789966  30.5326142
  44.9311524  27.0701982  17.3087521  45.8770628  26.9408190  17.3775939
  44.5525769  26.3316644  17.7856949  53.2422681  24.9916972  31.3118600
  52.7261730  24.2075429  31.1248529  54.1262630  24.6635689  31.4765120
  50.9033408  18.7357988  27.2714413  50.7058229  18.4273076  28.1557745
  51.5133114  19.4619627  27.4012343  44.8150216  31.1219728  38.7688178
  45.7353226  31.2998327  38.9628225  44.7799799  30.1775773  38.6167877
  43.1154441  24.9951958  17.2442406  42.2085896  24.6985071  17.3205120
  43.3930422  24.6981776  16.3776692  44.7316507  19.5388848  23.3986648
  43.9217235  19.1935933  23.7741894  45.4200924  19.2296392  23.9874259
  46.6607055  18.6166895  25.0210944  47.2138093  19.0362348  25.6800967
  46.8977141  17.6902643  25.0633900  42.6840154  24.6053969  40.8013708
  42.5836881  25.5548325  40.7325799  42.4661696  24.2772207  39.9289778
  41.8853225  21.8538894  17.3854385  42.7472389  22.1793792  17.6450203
  42.0703570  21.0670389  16.8727451  50.0385862  20.7267420  24.5289608
  49.4584531  21.3852224  24.1467661  49.7721795  19.9044765  24.1177026
  48.4889428  20.1272478  26.7310929  48.9889207  20.2389012  25.9225248
  49.1325036  19.8233531  27.3711737  42.5471424  28.0351107  39.6178770
  42.0638506  28.8351467  39.8242659  42.6332363  28.0459052  38.6646214
  39.0644144  30.4956758  34.2218001  39.8837033  30.9900837  34.2452838
  39.3380951  29.5788726  34.1935569  48.8210740  22.8867510  23.5845957
  47.9336595  23.1717161  23.3666151  49.2364729  22.7261274  22.7373234
  52.1725276  22.9114031  27.3000296  52.9485666  23.4010484  27.5724913
  51.4473410  23.3372086  27.7572165  54.6097835  23.6241651  28.3574237
  55.2042326  23.3837387  27.6467545  54.6824418  22.9048781  28.9847773
  47.9653953  32.6512185  17.6793977  48.6689804  32.8562188  18.2951632
  47.2416602  33.2188947  17.9443060  48.7951764  28.4022046  23.7996247
  48.7386965  28.8590598  22.9603879  49.3480106  27.6412731  23.6219090
  52.6056570  24.1911778  24.6246366  52.3493504  23.7908414  25.4554574
  51.9809438  24.9055572  24.4996506  39.9864116  38.3644579  28.8835844
  39.8696500  39.3090011  28.7814534  39.1656563  38.0618140  29.2721643
  49.8740651  33.0894714  19.7292437  50.7086255  32.6575913  19.5469912
  49.7124994  32.9176728  20.6569331  49.5286543  29.5926828  21.0948776
  49.4735347  29.4271099  20.1537220  48.9032598  30.3002861  21.2510966
  34.3179058  24.8294892  34.9210198  34.9637922  24.3193846  35.4097423
  34.1096209  25.5663574  35.4953624  46.8432450  31.8975739  40.4202339
  47.7123610  32.0716392  40.0588974  46.3639202  32.7170156  40.2978068
  42.8382669  19.0934937  20.6734094  42.8261338  20.0376777  20.8302365
  43.7306090  18.9105082  20.3793556  41.0118630  39.0172840  32.0991772
  41.9145877  39.0496451  32.4158267  40.7856001  38.0873291  32.1138108
  42.7672232  37.7703827  28.7601851  41.8167863  37.7705689  28.6466223
  43.0704719  37.0236562  28.2437886  46.6534788  15.6877713  24.9280031
  45.8867184  15.1336200  25.0736714  47.0645493  15.7599582  25.7894183
  38.6576549  21.9762509  39.0185212  39.5208011  21.6199314  39.2288537
  38.0841960  21.6376404  39.7060617  55.3114632  43.5591794  29.7609138
  54.9733144  43.4432858  28.8729673  56.1804400  43.1582959  29.7410144
  51.1701448  45.4127270  25.7506029  50.6066313  45.3217207  24.9822317
  51.0553843  44.5927174  26.2308522  55.7934415  44.7126645  35.7195344
  55.7823056  44.3179444  34.8475847  55.9555055  43.9792718  36.3129115
  48.7165880  46.9078462  28.5890250  49.5087172  46.5669286  28.1736549
  48.9562530  47.0173437  29.5092403  50.6756634  46.1687375  21.4607628
  51.4487510  45.6216362  21.3220504  51.0282033  47.0331624  21.6722090
  52.5141676  47.4963757  34.6674528  52.2231542  48.4009388  34.5521194
  53.1498661  47.5380285  35.3818597  53.4397883  44.8740606  31.2575887
  54.0361455  44.6496628  30.5432850  53.4972855  44.1325351  31.8601335
  53.0122912  42.3280041  19.0926078  53.2648432  41.8061562  18.3309541
  52.0747471  42.1646186  19.1952762  52.7319200  44.2308147  21.2950453
  52.6155458  43.5553050  21.9631538  52.8421460  43.7440521  20.4782606
  55.0750741  43.6918294  24.9997143  54.7108949  43.1648915  25.7110064
  55.9317857  43.3016763  24.8263628  54.7156228  38.7208194  19.9958491
  54.8830631  39.5888430  20.3628962  54.5253397  38.8835475  19.0719780
  50.9244043  43.6338969  27.6961026  49.9994539  43.5015184  27.9038718
  51.1728456  44.4133189  28.1930968  54.6945449  41.1765851  20.9805158
  54.5745074  41.6222902  21.8190638  53.9998038  41.5251169  20.4218696
  48.2852854  43.2772243  28.5304815  48.4145235  43.5306722  29.4444227
  47.6050305  43.8699951  28.2109470  54.9469571  41.1197358  37.2856656
  54.1702905  41.6791278  37.2759521  55.5860134  41.6054141  37.8071526
  53.2015943  43.9282812  36.8474623  53.9430628  44.4667856  36.5709447
  52.4952929  44.5549100  37.0046175  55.0302353  41.0084559  32.8180341
  55.8763548  41.4323972  32.9614990  54.9700991  40.3518183  33.5118905
  54.5528059  46.3687551  26.4649158  55.0166405  46.6475254  25.6753781
  54.2884858  45.4670995  26.2822249  51.4452141  45.9159032  29.4028922
  52.0153498  46.3446301  28.7646406  52.0360252  45.6341617  30.1013107
  53.4896946  42.4910703  23.2738724  54.1920989  42.9431747  23.7412650
  53.1577574  41.8494522  23.9018617  51.9377307  41.0822460  37.6489933
  51.3075968  41.7638741  37.8825330  51.8313395  40.9705541  36.7043071
  47.2322279  40.7494256  28.5755857  46.4421333  41.0051784  28.0995968
  47.7233527  41.5642594  28.6807898  49.1837025  41.1138835  25.5339334
  48.3868188  41.2257529  26.0522830  48.9562617  41.4525487  24.6680224
  55.0142693  47.6383538  33.4821848  55.0787125  48.1003946  34.3180020
  54.3053616  47.0080903  33.6104158  45.5159982  41.0024746  31.0070848
  45.7668021  41.8871756  31.2728424  46.0519531  40.8229348  30.2345940
  51.2158050  35.3843226  40.0115184  50.8224995  34.8309424  40.6862828
  52.0324190  35.6953804  40.4021702  48.1820108  46.8227084  23.9228754
  48.6944628  47.6170334  24.0734319  48.8342820  46.1253374  23.8562355
  49.9914992  49.9392840  26.0051507  50.1681621  50.8610805  25.8172491
  50.7871826  49.6251259  26.4345887  54.1326011  36.8001105  37.6035441
  54.8735724  37.4008258  37.5239903  54.3643934  36.0578743  37.0453483
  49.2767349  41.9857472  35.8813670  49.1620864  41.0842729  36.1820769
  48.4211867  42.2321169  35.5298487  51.1146308  51.4571014  32.0061849
  51.6653733  51.3288077  31.2338843  50.2757784  51.7565903  31.6556742
  54.9113479  47.7222142  36.3506081  55.4441816  46.9610430  36.1205389
  54.3827560  47.4295794  37.0930235  46.1469024  45.1515738  24.6988324
  46.9844246  45.5612747  24.4822032  46.3247292  44.2115180  24.6688518
  55.6280567  37.6640520  25.4457396  54.7722164  37.2747370  25.2663034
  56.0407519  37.7432480  24.5857181  53.4022600  35.2825593  28.8515137
  54.2675597  35.0868401  28.4921027  53.4700109  35.0535944  29.7784494
  56.2766191  46.8508134  23.8624893  55.7487553  46.1160894  23.5498130
  55.7753694  47.6282811  23.6164861  51.0084919  37.5127801  26.2231504
  51.5828671  37.2902982  25.4904697  51.5955902  37.5816495  26.9760105
  51.3354506  39.5432262  20.2427389  50.4991818  39.8806948  20.5636664
  51.1959276  39.4081241  19.3054526  53.3107587  34.3869049  24.9506573
  52.6571999  34.0718067  24.3263188  53.2688061  33.7644790  25.6766396
  54.4218792  44.6688345  16.8659866  53.5145853  44.4377598  17.0651015
  54.9189824  43.8725964  17.0533847  55.6007025  44.7700939  21.3883856
  54.6918244  44.4859972  21.4856325  55.6302109  45.1900018  20.5287163
  46.1695195  42.4906454  25.3699058  45.9719595  41.8975814  24.6450124
  45.6141859  42.1858664  26.0874997  54.1491919  42.3829560  27.4893651
  54.2040529  41.4303396  27.4136128  53.3383121  42.5388999  27.9734949
  55.2983113  46.3109683  18.7271934  54.8602543  45.5945542  18.2677572
  56.0393554  46.5385798  18.1657026  52.0884279  41.0006620  25.2484030
  51.2752145  41.3000790  25.6549222  52.5843273  40.6062309  25.9658512
  51.5798354  38.5724975  30.8645265  52.2197733  38.4313734  30.1668228
  50.7475884  38.2859489  30.4883867  52.3558658  47.8727406  26.9780257
  53.1499256  47.3777726  26.7762832  51.6450350  47.3445269  26.6147963
  48.6641421  42.0170487  23.0540010  47.7339009  41.9554943  23.2709972
  48.7598893  41.4946440  22.2576651  48.5826970  38.5425300  25.6418252
  48.8433788  39.4570634  25.5327412  49.4044143  38.0749743  25.7914864
  50.0551896  39.9563057  32.8117076  50.7274949  39.7480420  32.1629725
  49.2281682  39.7585143  32.3722308  54.9329934  48.4456428  30.6578094
  54.7941019  48.0775212  31.5304032  54.1444530  48.9604067  30.4862052
  50.4579393  43.2305660  33.5719513  50.3199191  42.4985899  34.1731052
  51.3684316  43.1414561  33.2903701  53.0861693  42.9425620  33.0603193
  53.7961312  42.3018812  33.0189811  53.0431002  43.1938515  33.9829374
  51.7990627  39.9290838  34.8798832  51.2627984  39.4781576  35.5320429
  51.2107336  40.0636746  34.1369297  51.2092886  39.3879489  17.4425296
  50.3322353  39.2668290  17.0787543  51.6850639  38.5965567  17.1904185
  42.7295027  44.1756649  27.5366803  43.4166066  43.8618379  26.9487819
  42.5743155  45.0798013  27.2634055  47.5329749  39.0646845  31.9651827
  47.4487937  38.4572515  31.2302237  46.7112455  39.5555864  31.9661323
  54.2888431  39.6917792  27.0593707  53.9186219  39.1388832  27.7474612
  54.7847524  39.0875925  26.5068707  47.7145348  49.6851642  31.0879827
  48.2998785  48.9395330  31.2207731  47.5170186  49.9955599  31.9716491
  42.3063003  42.2557242  29.8084270  42.3447102  41.7220833  30.6021388
  41.8003296  41.7292448  29.1895248  49.6853765  37.1021783  33.3046813
  49.7495091  37.9636614  32.8924210  49.6220885  36.4895784  32.5719171
  49.1606038  39.1744915  36.9519847  49.7878076  38.7921992  37.5657371
  48.3033956  38.9559117  37.3175539  45.9371580  40.9821344  22.8838202
  46.2325021  40.0732023  22.8305255  45.0359616  40.9609084  22.5619204
  49.4665827  39.0577341  28.8665750  48.7452413  39.6713309  28.7273224
  50.2559083  39.5935106  28.7882396  52.2692141  36.3931767  35.1406402
  52.7926543  36.6394064  35.9032711  52.0504474  37.2251802  34.7209539
  47.6659422  38.6635442  23.0077527  47.3372128  37.7832821  22.8252633
  48.0198793  38.6083111  23.8953916  50.7801245  38.9508412  23.3753005
  51.1197318  39.4794333  22.6531613  51.2273365  39.2888818  24.1511571
  53.4744686  37.3345462  32.8256073  53.1341506  36.5353276  33.2276753
  52.7683692  37.6347173  32.2532906  54.1261158  34.4194775  31.2783396
  54.9487227  33.9455253  31.1562286  54.3699221  35.1985259  31.7782082
  52.7669392  37.4483033  21.5746297  53.4877755  37.8264286  21.0710014
  52.1434696  38.1671910  21.6781275  51.6499736  41.1113896  29.0875374
  51.5044317  41.4254199  29.9799656  51.1724940  41.7298796  28.5346273
  53.5096119  38.1016444  29.1356264  53.4957688  37.2057537  28.7988562
  54.2268547  38.1087107  29.7694550  55.3622250  38.5353784  31.1809391
  55.1040028  39.4570854  31.1793722  54.8307290  38.1384218  31.8709855
  46.1245399  43.6519240  32.0263035  45.5798867  44.4279048  32.1583310
  47.0024748  43.9990044  31.8682157  52.9133015  36.9830824  24.4043834
  53.0348926  36.0547470  24.6034721  52.6235058  36.9969510  23.4922149
  55.7824206  34.6685734  27.5410554  55.8045902  34.7325067  26.5862533
  56.1992265  33.8290243  27.7351060  46.9111420  42.7789136  34.9193192
  46.1693156  42.9271772  35.5057823  46.5904165  43.0397402  34.0559942
  47.3568034  50.6654565  26.9503587  48.1826054  50.3658337  26.5702231
  47.0062086  49.8962187  27.3993376  52.3249567  50.0181033  29.0201261
  51.7029577  49.3551738  28.7203488  52.9954434  50.0442165  28.3374908
  45.5576639  48.5840891  27.9092521  44.7208547  48.1563066  27.7276522
  45.5300285  48.7773335  28.8463312  52.3974095  38.4962821  38.6133767
  52.4462250  39.3724944  38.2311536  52.9396609  37.9540214  38.0405410
  51.8863074  48.5684956  22.4959721  52.0351195  49.2520421  21.8426394
  52.6929518  48.5490047  23.0109177  54.6273383  39.2494194  35.3680125
  53.7576693  39.5427760  35.0962714  54.8632864  39.8334639  36.0887389
  49.6415707  44.5950134  23.5020790  49.3961749  43.6912464  23.7001000
  49.8111622  44.5967285  22.5600268  48.9111355  40.3278492  21.0006951
  48.2180600  40.4022847  20.3446987  48.6663107  39.5638835  21.5228468
  53.9548195  40.3243876  17.2442406  53.0479651  40.0276989  17.3205120
  54.2324176  40.0273694  16.3776692  44.8726136  41.6450239  27.6941453
  44.5528920  40.7915548  27.4015827  44.3259564  41.8598818  28.4499420
  48.6506043  44.3612680  31.4110959  48.8692053  45.2929788  31.4298993
  49.0631817  44.0020655  32.1965763  55.5710261  34.8680766  23.3986648
  54.7610989  34.5227851  23.7741894  56.2594678  34.5588309  23.9874259
  53.5233909  39.9345886  40.8013708  53.4230635  40.8840243  40.7325799
  53.3055451  39.6064125  39.9289778  52.7246980  37.1830811  17.3854385
  53.5866144  37.5085710  17.6450203  52.9097324  36.3962307  16.8727451
  44.7414396  45.2653151  29.6634574  44.0477867  44.8507104  29.1504529
  45.4887387  45.3073687  29.0667993  53.3865179  43.3643025  39.6178770
  52.9032260  44.1643385  39.8242659  53.4726118  43.3750970  38.6646214
  46.6551138  45.1971405  27.5400589  46.6321826  45.2959092  26.5882472
  46.9651775  46.0436556  27.8617755  49.3138516  47.2547560  31.6547204
  50.2681770  47.2231502  31.5877135  49.1151040  46.7938183  32.4697429
  49.9037898  45.8248676  34.2218001  50.7230787  46.3192754  34.2452838
  50.1774706  44.9080644  34.1935569  47.6688745  52.7967179  28.6717401
  47.5343213  52.0367580  28.1055399  47.2520807  53.5208079  28.2046190
  45.1572813  40.1586810  34.9210198  45.8031676  39.6485764  35.4097423
  44.9489964  40.8955491  35.4953624  53.6776423  34.4226854  20.6734094
  53.6655093  35.3668694  20.8302365  54.5699845  34.2397000  20.3793556
  49.4970304  37.3054427  39.0185212  50.3601765  36.9491232  39.2288537
  48.9235714  36.9668322  39.7060617  30.7764834   0.2947780  11.3540596
  30.6988863   1.2455605  11.4329076  30.1726477  -0.0506347  12.0115522
  28.4151663   3.0433174  15.4988798  28.6548261   3.6751698  16.1767816
  27.5720860   2.6921214  15.7854157  28.8896495  -0.9318823  12.8287576
  28.2206871  -0.4472696  12.3451616  28.7509365  -0.6849603  13.7430955
  33.0301764   1.1024920  19.4270235  33.5820072   1.2656542  20.1919320
  33.3707957   1.6929358  18.7550259  25.9901237  -0.8554534  15.3962708
  25.8555705  -1.6154133  14.8300706  25.5733299  -0.1313634  14.9291497
  29.1470363   0.0414784  15.6081151  29.0302747   0.9860216  15.5059841
  28.3262809  -0.2611655  15.9966950  30.1724877   0.6943045  18.8237079
  31.0752124   0.7266656  19.1403574  29.9462247  -0.2356504  18.8383415
  44.4720879   5.2361998  16.4854445  44.1339391   5.1203063  15.5974980
  45.3410647   4.8353164  16.4655451  40.3307695   7.0897475  12.4751336
  39.7672560   6.9987412  11.7067624  40.2160090   6.2697379  12.9553828
  44.9540662   6.3896850  22.4440650  44.9429303   5.9949648  21.5721154
  45.1161301   5.6562923  23.0374422  37.8772127   8.5848666  15.3135556
  38.6693419   8.2439491  14.8981856  38.1168777   8.6943642  16.2337710
  45.9107253  10.7568443   7.7865801  45.2595233  11.3422523   7.3999814
  46.7051616  11.2874637   7.8460838  39.8362881   7.8457580   8.1852935
  40.6093757   7.2986567   8.0465811  40.1888279   8.7101829   8.3967396
  41.6747923   9.1733962  21.3919834  41.3837789  10.0779593  21.2766501
  42.3104907   9.2150490  22.1063904  42.6004130   6.5510810  17.9821194
  43.1967702   6.3266833  17.2678157  42.6579102   5.8095556  18.5846642
  41.8925447   5.9078352   8.0195760  41.7761705   5.2323255   8.6876844
  42.0027707   5.4210726   7.2027913  44.2356988   5.3688499  11.7242449
  43.8715195   4.8419120  12.4355371  45.0924104   4.9786968  11.5508935
  46.6337808   8.8595377  18.3869628  46.3338531   9.7620416  18.2785435
  46.2888868   8.5927561  19.2390781  40.0850290   5.3109174  14.4206332
  39.1600786   5.1785388  14.6284024  40.3334703   6.0903394  14.9176275
  37.4459101   4.9542448  15.2550122  37.5751482   5.2076927  16.1689533
  36.7656552   5.5470156  14.9354777  41.6158588  15.6239698  11.3540596
  41.5382618  16.5747523  11.4329076  41.0120232  15.2785570  12.0115522
  42.3622190   5.6053017  23.5719930  43.1036874   6.1438061  23.2954753
  41.6559176   6.2319305  23.7291481  47.8377530   7.7482157  22.1692091
  48.2460886   7.3064568  21.4246723  47.1154791   7.1734785  22.4226284
  48.1606344   8.3083348  15.9244380  47.5315207   8.4729062  15.2220448
  47.7732006   8.7224957  16.6955344  52.0395576   9.2437786  13.2788744
  51.3546614   9.6236687  12.7285777  52.1239426   9.8533112  14.0120692
  43.7134306   8.0457756  13.1894465  44.1772652   8.3245459  12.3999088
  43.4491104   7.1441200  13.0067556  40.6058387   7.5929237  16.1274228
  41.1759744   8.0216506  15.4891713  41.1966499   7.3111822  16.8258414
  36.3928526   2.4264461  15.3001164  35.6027580   2.6821989  14.8241274
  36.8839774   3.2412799  15.4053204  50.4092336   9.7669700  18.0506445
  51.2309780   9.3649887  17.7689126  50.4054739   9.6637934  19.0022560
  38.3443272   2.7909040  12.2584640  37.5474435   2.9027734  12.7768136
  38.1168864   3.1295692  11.3925531  44.1748939   9.3153743  20.2067155
  44.2393372   9.7774151  21.0425327  43.4659863   8.6851108  20.3349465
  34.6766229   2.6794951  17.7316155  34.9274268   3.5641961  17.9973731
  35.2125778   2.4999553  16.9591246  43.8896957  10.9821851  10.0746135
  43.7542632  11.8273387  10.5030983  44.4306769  11.1841128   9.3112069
  37.3426354   8.4997289  10.6474061  37.8550875   9.2940539  10.7979625
  37.9949067   7.8023579  10.5807662  39.1521239  11.6163045  12.7296814
  39.3287867  12.5381010  12.5417798  39.9478073  11.3021464  13.1591193
  38.4373596   3.6627677  22.6058977  38.3227111   2.7612934  22.9066076
  37.5818113   3.9091374  22.2543793  45.5165433  11.6045417  24.2046478
  45.0729287  10.8181796  23.8867382  46.1782647  11.7924568  23.5390368
  40.2752554  13.1341219  18.7307156  40.8259980  13.0058282  17.9584150
  39.4364030  13.4336108  18.3802049  47.6146671  11.8848217  22.2327879
  47.5965147  12.7057098  21.7408148  48.5366591  11.7602292  22.4578020
  44.0719726   9.3992347  23.0751387  44.6048062   8.6380635  22.8450695
  43.5433807   9.1065999  23.8175542  35.3075271   6.8285943  11.4233631
  36.1450493   7.2382951  11.2067339  35.4853539   5.8885385  11.3933825
  45.4372438   8.5278339  10.5870199  44.9093800   7.7931099  10.2743437
  44.9359941   9.3053016  10.3410168  50.4165284   6.7227360  15.7037245
  49.7588959   7.4126621  15.7917374  51.2205683   7.1123792  16.0471232
  46.4893117  15.0556057   6.5101858  45.8154816  15.3587753   7.1186816
  46.8758939  15.8585137   6.1607315  49.9932539  10.0577734  11.8820330
  49.5394866   9.2168644  11.9385520  49.3626506  10.6939132  12.2195110
  48.4365479  11.8954231  12.8170148  48.7288453  12.4559288  12.0982514
  48.9464099  12.1882792  13.5723307  35.3301442   4.1676658  12.0944365
  35.1325842   3.5746019  11.3695431  34.7748106   3.8628869  12.8120303
  43.3999104  12.6734582  13.9063601  43.3575283  12.8995428  12.9772133
  44.3161803  12.4397956  14.0549402  52.6031854   8.3313612  16.5204831
  53.0368361   8.2388901  17.3687885  53.3163435   8.3071113  15.8824847
  41.5164904   9.5497611  13.7025564  42.3105503   9.0547931  13.5008139
  40.8056597   9.0215474  13.3393269  46.3359749  11.9315706  18.0537932
  46.3896771  12.5006642  18.8215647  45.4674530  12.1017591  17.6891969
  37.8247668   3.6940692   9.7785317  36.8945256   3.6325148   9.9955279
  37.9205140   3.1716645   8.9821958  53.4647404   8.3737313  19.0537716
  53.6583294   9.2783123  19.2996991  53.3648022   7.9144732  19.8876301
  48.5262512   8.5244055  24.6278597  48.3748019   8.2954607  23.7108681
  48.5167192   9.4814657  24.6409942  45.2947849   6.0975968  19.6124863
  46.2239909   6.2487128  19.4393831  44.8738879   6.1859989  18.7573510
  44.0936180  10.1226633  17.3823401  43.9547266   9.7545417  18.2549339
  43.3050777  10.6374272  17.2107359  44.6884332  15.2235729   8.7248938
  44.8636088  14.7523772   9.5394560  44.0017120  15.8501495   8.9530198
  45.6441396   9.5008235  14.7712239  45.3091228   9.4609005  15.6669889
  45.1445341   8.8352951  14.2982649  39.6185640   4.9075865  20.2964820
  39.4805438   4.1756104  20.8976359  40.5290563   4.8184765  20.0149008
  42.2467940   4.6195825  19.7848500  42.9567559   3.9789017  19.7435118
  42.2037248   4.8708720  20.7074680  50.2354719  11.5563178  22.7055079
  50.1767265  10.8722398  22.0385662  50.6374237  12.2982168  22.2535705
  39.2545418  18.3725092  15.4988798  39.4942016  19.0043616  16.1767816
  38.4114614  18.0213132  15.7854157  50.2372126   9.5202762  20.9369058
  49.3498905   9.1828684  21.0595457  50.8070677   8.7885793  21.1737824
  31.8901273   5.8526854  14.2612110  32.5772313   5.5388584  13.6733125
  31.7349402   6.7568218  13.9879361  43.7673280  14.1804214  17.9030302
  43.6943451  14.9859186  18.4149606  43.3250673  14.3796180  17.0778323
  43.5563059  13.4175984  11.4133123  42.7730581  13.9597664  11.5071348
  44.2555804  13.9349964  11.8127364  46.2271963  14.0791048  20.0588460
  46.9399935  14.7138513  19.9864362  45.7361992  14.1754914  19.2428462
  47.9489490   7.9842301  11.6305752  47.0145769   8.1043763  11.4610456
  48.1266158   7.0814768  11.3665762  41.2783877  11.8285492  20.8794031
  41.9793336  12.4621975  21.0323425  40.8078992  12.1700223  20.1189670
  46.0392336  14.4189792  12.8074752  46.2214731  13.6011448  13.2702504
  46.8625323  14.6357485  12.3699642  46.3734502  13.3457978  10.0689800
  46.9022268  12.8350432   9.4559962  46.6362722  13.0300508  10.9335333
  45.1272736   5.1249910  25.1912619  44.4513373   5.0244040  25.8614994
  45.9500370   4.9689124  25.6548616  36.8751595  11.3621847  17.8125134
  37.4605032  10.6165535  17.9453038  36.6776433  11.6725804  18.6961798
  39.7290250  14.3973094  12.8287576  39.0600625  14.8819222  12.3451616
  39.5903120  14.6442315  13.7430955  31.4669249   3.9327447  16.5329577
  31.5053349   3.3991038  17.3266695  30.9609542   3.4062653  15.9140554
  43.8695519  16.4316838  19.4270235  44.4213827  16.5948459  20.1919320
  44.2101712  17.0221276  18.7550259  48.7206393  11.2578095  25.2818889
  49.2646297  11.8708054  24.7873844  48.1393238  11.8157674  25.7985902
  35.0977827   2.6591549   9.6083508  35.3931268   1.7502228   9.5550562
  34.1965863   2.6379289   9.2864511  47.0063906  14.3798813  16.4133917
  46.8815045  13.5788553  15.9044862  47.6642997  14.8745007  15.9247887
  49.0698814  12.1807833  18.0413467  48.1229150  12.0613185  17.9691794
  49.4181587  11.2930331  18.1239728  46.0745247  11.9760550  14.2417819
  45.9270210  11.0477257  14.4225389  46.8998741  11.9980640  13.7574894
  49.6779369  12.7989108  15.3282692  50.6025917  12.5931970  15.1907143
  49.5094673  12.5505509  16.2372033  49.4674686  13.3174776  10.6844783
  49.6411563  12.7521198   9.9318636  49.9603577  14.1175671  10.5024273
  35.2851645   5.3289445  18.7508342  34.7405113   6.1049253  18.8828616
  36.1630995   5.6760249  18.5927464  36.0717667   4.4559341  21.6438499
  35.3299403   4.6041976  22.2303129  35.7510411   4.7167607  20.7805248
  44.0161330  13.9975319  21.4418889  44.3248456  13.7524466  22.3141589
  44.8136812  14.2021958  20.9537759  44.0381942  16.1513229  13.6724266
  43.5986932  15.6589608  14.3657122  44.7890059  15.6086197  13.4316341
  36.5174281  12.3424770  13.6748894  37.3432301  12.0428542  13.2947537
  36.1668333  11.5732392  14.1238682  41.4855814  11.6951238  15.7446567
  40.8635823  11.0321943  15.4448795  42.1560681  11.7212370  15.0620215
  34.7182886  10.2611096  14.6337827  33.8814794   9.8333271  14.4521828
  34.6906531  10.4543540  15.5708618  52.0435187  10.7174149  24.6180210
  51.2530731  10.6998288  24.0784710  51.8068542  11.2562443  25.3729247
  41.0469321  10.2455161   9.2205028  41.1957441  10.9290626   8.5671700
  41.8535764  10.2260251   9.7354483  53.6651259   9.9863557  22.1754960
  53.3736067  10.3493538  23.0118421  53.0523390   9.2730565  21.9968292
  38.8021954   6.2720339  10.2266097  38.5567996   5.3682669  10.4246307
  38.9717868   6.2737489   9.2845575  44.5464726  12.7403292   6.6916775
  43.9738694  13.3593479   6.2387247  45.1197520  13.2902654   7.2256697
  44.8150218   8.1281851  25.4933485  45.7353227   8.3060450  25.6873531
  44.7799801   7.1837896  25.3413184  34.0332383   3.3220444  14.4186759
  33.7135167   2.4685753  14.1261133  33.4865811   3.5369023  15.1744727
  37.8112290   6.0382885  18.1356266  38.0298300   6.9699993  18.1544300
  38.2238064   5.6790860  18.9211070  33.9020643   6.9423356  16.3879881
  33.2084114   6.5277309  15.8749835  34.6493634   6.9843892  15.7913300
  42.5471425   5.0413230  26.3424076  42.0638507   5.8413590  26.5487965
  42.6332364   5.0521175  25.3891520  35.8157385   6.8741610  14.2645896
  35.7928073   6.9729297  13.3127779  36.1258022   7.7206760  14.5863062
  38.4744763   8.9317765  18.3792510  39.4288016   8.9001707  18.3122442
  38.2757286   8.4708388  19.1942736  39.0644145   7.5018881  20.9463308
  39.8837034   7.9962959  20.9698145  39.3380953   6.5850849  20.9180875
  36.8294992  14.4737384  15.3962708  36.6949460  13.7137785  14.8300706
  36.4127054  15.1978284  14.9291497  39.9864118  15.3706701  15.6081151
  39.8696502  16.3152134  15.5059841  39.1656564  15.0680263  15.9966950
  34.3179059   1.8357015  21.6455505  34.9637923   1.3255969  22.1342730
  34.1096210   2.5725696  22.2198930  46.8432451   8.9037862  27.1447645
  47.7123611   9.0778514  26.7834280  46.3639203   9.7232279  27.0223375
  41.0118632  16.0234963  18.8237079  41.9145878  16.0558573  19.1403574
  40.7856002  15.0935414  18.8383415  42.7672234  14.7765950  15.4847158
  41.8167865  14.7767811  15.3711530  43.0704720  14.0298684  14.9683192
  55.3114633  20.5653916  16.4854445  54.9733145  20.4494981  15.5974980
  56.1804402  20.1645081  16.4655451  51.1701449  22.4189393  12.4751336
  50.6066314  22.3279329  11.7067624  51.0553844  21.5989297  12.9553828
  55.7934416  21.7188768  22.4440650  55.7823057  21.3241566  21.5721154
  55.9555056  20.9854840  23.0374422  48.7165881  23.9140584  15.3135556
  49.5087173  23.5731409  14.8981856  48.9562531  24.0235559  16.2337710
  50.6756635  23.1749497   8.1852935  51.4487511  22.6278484   8.0465811
  51.0282034  24.0393747   8.3967396  52.5141678  24.5025880  21.3919834
  52.2231544  25.4071510  21.2766501  53.1498662  24.5442407  22.1063904
  53.4397884  21.8802728  17.9821194  54.0361457  21.6558751  17.2678157
  53.4972856  21.1387474  18.5846642  52.7319202  21.2370269   8.0195760
  52.6155460  20.5615173   8.6876844  52.8421462  20.7502643   7.2027913
  55.0750743  20.6980417  11.7242449  54.7108950  20.1711038  12.4355371
  55.9317858  20.3078886  11.5508935  50.9244044  20.6401092  14.4206332
  49.9994541  20.5077306  14.6284024  51.1728457  21.4195311  14.9176275
  48.2852855  20.2834366  15.2550122  48.4145236  20.5368844  16.1689533
  47.6050307  20.8762074  14.9354777  52.4552343  30.9531616  11.3540596
  52.3776372  31.9039441  11.4329076  51.8513986  30.6077488  12.0115522
  54.9469572  18.1259481  24.0101963  54.1702906  18.6853401  24.0004827
  55.5860135  18.6116264  24.5316833  53.2015945  20.9344934  23.5719930
  53.9430629  21.4729978  23.2954753  52.4952930  21.5611223  23.7291481
  55.0302354  18.0146682  19.5425648  55.8763549  18.4386095  19.6860297
  54.9700992  17.3580306  20.2364211  54.5528061  23.3749673  13.1894465
  55.0166406  23.6537376  12.3999088  54.2884859  22.4733118  13.0067556
  51.4452142  22.9221155  16.1274228  52.0153499  23.3508423  15.4891713
  52.0360254  22.6403740  16.8258414  53.4896947  19.4972826   9.9984030
  54.1920990  19.9493870  10.4657957  53.1577575  18.8556645  10.6263923
  51.9377308  18.0884582  24.3735240  51.3075969  18.7700863  24.6070636
  51.8313396  17.9767664  23.4288378  47.2322281  17.7556379  15.3001164
  46.4421335  18.0113907  14.8241274  47.7233528  18.5704716  15.4053204
  49.1837026  18.1200958  12.2584640  48.3868189  18.2319652  12.7768136
  48.9562618  18.4587610  11.3925531  55.0142694  24.6445661  20.2067155
  55.0787126  25.1066068  21.0425327  54.3053618  24.0143026  20.3349465
  45.5159984  18.0086869  17.7316155  45.7668022  18.8933879  17.9973731
  46.0519532  17.8291470  16.9591246  54.7290711  26.3113768  10.0746135
  54.5936386  27.1565304  10.5030983  55.2700524  26.5133046   9.3112069
  51.2158051  12.3905348  26.7360491  50.8224997  11.8371547  27.4108135
  52.0324191  12.7015927  27.1267008  48.1820109  23.8289207  10.6474061
  48.6944629  24.6232457  10.7979625  48.8342822  23.1315497  10.5807662
  49.9914994  26.9454963  12.7296814  50.1681622  27.8672927  12.5417798
  50.7871827  26.6313382  13.1591193  54.1326012  13.8063227  24.3280747
  54.8735725  14.4070381  24.2485210  54.3643935  13.0640865  23.7698790
  49.2767350  18.9919595  22.6058977  49.1620865  18.0904852  22.9066076
  48.4211868  19.2383291  22.2543793  51.1146309  28.4633137  18.7307156
  51.6653734  28.3350200  17.9584150  50.2757785  28.7628026  18.3802049
  54.9113480  24.7284264  23.0751387  55.4441817  23.9672553  22.8450695
  54.3827561  24.4357916  23.8175542  46.1469026  22.1577861  11.4233631
  46.9844248  22.5674869  11.2067339  46.3247293  21.2177303  11.3933825
  53.4022601  12.2887715  15.5760444  54.2675598  12.0930524  15.2166333
  53.4700110  12.0598067  16.5029801  56.2766193  23.8570257  10.5870199
  55.7487554  23.1223016  10.2743437  55.7753695  24.6344933  10.3410168
  51.0084920  14.5189923  12.9476811  51.5828672  14.2965105  12.2150004
  51.5955903  14.5878618  13.7005412  46.1695197  19.4968576  12.0944365
  45.9719597  18.9037937  11.3695431  45.6141861  19.1920786  12.8120303
  54.1491920  19.3891683  14.2138958  54.2040530  18.4365519  14.1381434
  53.3383122  19.5451122  14.6980256  52.0884280  18.0068742  11.9729337
  51.2752146  18.3062913  12.3794529  52.5843274  17.6124431  12.6903819
  54.2392858  28.0026499  13.9063601  54.1969037  28.2287346  12.9772133
  55.1555557  27.7689874  14.0549402  51.5798355  15.5787098  17.5890571
  52.2197734  15.4375857  16.8913535  50.7475886  15.2921611  17.2129173
  52.3558659  24.8789528  13.7025564  53.1499257  24.3839848  13.5008139
  51.6450351  24.3507391  13.3393269  48.6641422  19.0232610   9.7785317
  47.7339011  18.9617066   9.9955279  48.7598894  18.5008563   8.9821958
  48.5826971  15.5487423  12.3663558  48.8433789  16.4632756  12.2572719
  49.4044144  15.0811865  12.5160171  50.0551897  16.9625180  19.5362383
  50.7274950  16.7542542  18.8875032  49.2281683  16.7647266  19.0967615
  54.9329935  25.4518550  17.3823401  54.7941021  25.0837335  18.2549339
  54.1444531  25.9666190  17.2107359  55.5278087  30.5527647   8.7248938
  55.7029843  30.0815690   9.5394560  54.8410875  31.1793413   8.9530198
  50.4579394  20.2367783  20.2964820  50.3199192  19.5048022  20.8976359
  51.3684318  20.1476683  20.0149008  53.0861695  19.9487742  19.7848500
  53.7961313  19.3080935  19.7435118  53.0431003  20.2000637  20.7074680
  51.7990629  16.9352960  21.6044139  51.2627986  16.4843699  22.2565735
  51.2107337  17.0698869  20.8614603  50.0939172  33.7017010  15.4988798
  50.3335770  34.3335534  16.1767816  49.2508369  33.3505050  15.7854157
  42.7295028  21.1818771  14.2612110  43.4166068  20.8680501  13.6733125
  42.5743156  22.0860136  13.9879361  47.5329750  16.0708968  18.6897134
  47.4487939  15.4634637  17.9547544  46.7112456  16.5617986  18.6906630
  54.6067034  29.5096132  17.9030302  54.5337206  30.3151103  18.4149606
  54.1644427  29.7088098  17.0778323  54.3956814  28.7467902  11.4133123
  53.6124336  29.2889582  11.5071348  55.0949559  29.2641882  11.8127364
  54.2888433  16.6979914  13.7839013  53.9186220  16.1450955  14.4719919
  54.7847525  16.0938048  13.2314013  52.1177631  27.1577409  20.8794031
  52.8187091  27.7913892  21.0323425  51.6472746  27.4992141  20.1189670
  47.7145349  26.6913764  17.8125134  48.2998786  25.9457452  17.9453038
  47.5170188  27.0017721  18.6961798  50.5684004  29.7265012  12.8287576
  49.8994380  30.2111140  12.3451616  50.4296874  29.9734232  13.7430955
  42.3063004  19.2619365  16.5329577  42.3447103  18.7282955  17.3266695
  41.8003297  18.7354570  15.9140554  54.7089273  31.7608755  19.4270235
  55.2607581  31.9240377  20.1919320  55.0495466  32.3513193  18.7550259
  49.6853766  14.1083905  20.0292119  49.7495093  14.9698736  19.6169517
  49.6220886  13.4957907  19.2964478  49.1606039  16.1807038  23.6765154
  49.7878078  15.7984115  24.2902678  48.3033958  15.9621240  24.0420846
  45.9371582  17.9883467   9.6083508  46.2325023  17.0794145   9.5550562
  45.0359617  17.9671206   9.2864511  49.4665829  16.0639463  15.5911057
  48.7452414  16.6775431  15.4518530  50.2559084  16.5997228  15.5127703
  52.2692142  13.3993890  21.8651709  52.7926544  13.6456186  22.6278018
  52.0504475  14.2313925  21.4454846  47.6659423  15.6697565   9.7322834
  47.3372129  14.7894943   9.5497939  48.0198794  15.6145233  10.6199223
  50.7801246  15.9570534  10.0998311  51.1197319  16.4856456   9.3776920
  51.2273367  16.2950940  10.8756878  53.4744687  14.3407585  19.5501379
  53.1341507  13.5415398  19.9522059  52.7683693  14.6409296  18.9778212
  54.1261159  11.4256897  18.0028702  54.9487228  10.9517376  17.8807593
  54.3699222  12.2047381  18.5027389  51.6499738  18.1176018  15.8120681
  51.5044318  18.4316321  16.7044962  51.1724941  18.7360918  15.2591580
  53.5096121  15.1078566  15.8601570  53.4957689  14.2119659  15.5233868
  54.2268549  15.1149230  16.4939857  55.3622251  15.5415906  17.9054698
  55.1040029  16.4632977  17.9039028  54.8307292  15.1446341  18.5955162
  46.1245400  20.6581362  18.7508342  45.5798868  21.4341170  18.8828616
  47.0024750  21.0052167  18.5927464  46.9111422  19.7851259  21.6438499
  46.1693158  19.9333894  22.2303129  46.5904166  20.0459524  20.7805248
  54.8555084  29.3267237  21.4418889  55.1642211  29.0816384  22.3141589
  55.6530566  29.5313875  20.9537759  54.8775696  31.4805147  13.6724266
  54.4380687  30.9881525  14.3657122  55.6283813  30.9378114  13.4316341
  47.3568035  27.6716687  13.6748894  48.1826055  27.3720459  13.2947537
  47.0062087  26.9024310  14.1238682  52.3249569  27.0243156  15.7446567
  51.7029578  26.3613861  15.4448795  52.9954435  27.0504288  15.0620215
  45.5576640  25.5903014  14.6337827  44.7208549  25.1625188  14.4521828
  45.5300286  25.7835457  15.5708618  52.3974096  15.5024944  25.3379073
  52.4462251  16.3787067  24.9556843  52.9396610  14.9602337  24.7650716
  51.8863075  25.5747079   9.2205028  52.0351196  26.2582543   8.5671700
  52.6929519  25.5552169   9.7354483  54.6273384  16.2556316  22.0925432
  53.7576694  16.5489882  21.8208020  54.8632865  16.8396761  22.8132696
  49.6415708  21.6012257  10.2266097  49.3961750  20.6974587  10.4246307
  49.8111623  21.6029407   9.2845575  48.9111356  17.3340614   7.7252258
  48.2180601  17.4084969   7.0692294  48.6663108  16.5700958   8.2473775
  55.3858481  28.0695209   6.6916775  54.8132448  28.6885397   6.2387247
  55.9591275  28.6194571   7.2256697  44.8726137  18.6512362  14.4186759
  44.5528921  17.7977670  14.1261133  44.3259565  18.8660940  15.1744727
  48.6506045  21.3674803  18.1356266  48.8692054  22.2991911  18.1544300
  49.0631818  21.0082777  18.9211070  53.5233910  16.9408009  27.5259015
  53.4230637  17.8902366  27.4571106  53.3055452  16.6126248  26.6535085
  44.7414397  22.2715274  16.3879881  44.0477868  21.8569226  15.8749835
  45.4887388  22.3135810  15.7913300  53.3865180  20.3705148  26.3424076
  52.9032262  21.1705508  26.5487965  53.4726119  20.3813093  25.3891520
  46.6551140  22.2033527  14.2645896  46.6321828  22.3021215  13.3127779
  46.9651776  23.0498678  14.5863062  49.3138517  24.2609682  18.3792510
  50.2681771  24.2293625  18.3122442  49.1151041  23.8000306  19.1942736
  49.9037900  22.8310798  20.9463308  50.7230789  23.3254877  20.9698145
  50.1774707  21.9142767  20.9180875  47.6688746  29.8029302  15.3962708
  47.5343214  29.0429703  14.8300706  47.2520808  30.5270202  14.9291497
  50.8257872  30.6998619  15.6081151  50.7090256  31.6444051  15.5059841
  50.0050318  30.3972180  15.9966950  45.1572814  17.1648932  21.6455505
  45.8031677  16.6547886  22.1342730  44.9489965  17.9017614  22.2198930
  51.8512386  31.3526881  18.8237079  52.7539633  31.3850491  19.1403574
  51.6249756  30.4227332  18.8383415  53.6065988  30.1057867  15.4847158
  52.6561619  30.1059729  15.3711530  53.9098474  29.3590602  14.9683192
  49.4970305  14.3116549  25.7430519  50.3601766  13.9553354  25.9533844
  48.9235715  13.9730444  26.4305923  53.5688782  36.5110689  14.2612110
  54.2559822  36.1972419  13.6733125  53.4136911  37.4152054  13.9879361
  53.1456758  34.5911282  16.5329577  53.1840858  34.0574873  17.3266695
  52.6397051  34.0646488  15.9140554  56.3970395  40.9194932  14.6337827
  55.5602303  40.4917106  14.4521828  56.3694040  41.1127375  15.5708618
  55.7119891  33.9804280  14.4186759  55.3922676  33.1269588  14.1261133
  55.1653320  34.1952858  15.1744727  55.5808151  37.6007191  16.3879881
  54.8871623  37.1861144  15.8749835  56.3281142  37.6427728  15.7913300
   4.3029554  21.4400368  40.9500800   3.5493262  20.8707766  40.7944804
   4.4377095  21.4063032  41.8971434   0.6678166  22.8808356  41.2466914
   1.5025058  23.3198161  41.4104475   0.8037295  22.4047010  40.4275160
   4.7135969  21.5975978  43.6821044   5.4439357  21.3361266  44.2428747
   4.1042914  20.8604700  43.7223112   2.7951266  19.7383840  44.2795495
   2.0684430  19.6039805  43.6711987   2.3798553  20.0460669  45.0852213
   2.7200134  19.2661894  40.4072348   2.1599692  19.3355083  41.1803910
   2.1143637  19.0902878  39.6871844   4.3056152  35.9418407  43.1002304
   4.9434562  35.8225155  42.3965644   4.1876995  36.8899251  43.1590256
   1.1145859  35.8945836  43.0363828   0.7764370  35.7786900  42.1484363
   1.9835627  35.4937001  43.0164835   2.5532233  41.4152280  34.3375184
   1.9020213  42.0006360  33.9509198   3.3476596  41.9458475  34.3970222
   3.8597421  33.6669861  40.1755512   4.6460510  33.2489284  39.8245929
   4.1236125  34.5715954  40.3437160   4.0307498  39.1042712  34.8744169
   3.3953331  39.1777338  35.5865073   3.7004904  39.6936310  34.1963248
   9.2605848  33.6045095  41.0788490   9.9931020  33.0344311  41.3126320
   8.5045204  33.2166695  41.5194996   0.8781968  36.0272336  38.2751833
   0.5140175  35.5002957  38.9864754   1.7349083  35.6370805  38.1018318
   6.7831268  27.3166669  45.5383099   6.4514593  28.1862080  45.3144314
   6.1876882  27.0002953  46.2177129   3.2762788  39.5179215  44.9379012
   2.9763511  40.4204253  44.8294819   2.9313847  39.2511398  45.7900165
   6.6759932  32.0361755  42.6176449   5.7676809  31.9677163  42.3235210
   6.6247527  32.5133700  43.4458274   8.5421578  30.2378193  44.3954323
   7.8995958  30.5310726  43.7494117   8.0376506  30.1231114  45.2007520
   6.1961742  33.9841366  35.0840182   7.1079598  34.2168753  34.9087880
   5.6871389  34.5678411  34.5215261   0.8333579  33.3438601  46.0935032
   1.6794775  33.7678015  46.2369681   0.7732217  32.6872225  46.7873595
   4.8031324  38.9667185  42.4753764   4.1740186  39.1312899  41.7729831
   4.4156986  39.3808794  43.2464728   8.6820556  39.9021623  39.8298127
   7.9971594  40.2820524  39.2795161   8.7664405  40.5116949  40.5630075
   3.9833025  31.0042969  47.7516205   3.7393957  31.7585030  47.2150481
   4.2592955  31.3828317  48.5863452   5.9371487  37.5481582  46.4293471
   6.1488383  38.1913342  45.7527852   5.8901236  36.7143898  45.9615401
   3.5397716  30.1599402  43.3330043   2.6782195  30.4580656  43.6246781
   3.5660151  30.3769801  42.4011076   7.0517315  40.4253537  44.6015828
   7.8734759  40.0233724  44.3198510   7.0479718  40.3221771  45.5531944
  15.1423308  36.7692286  40.9500800  14.3887017  36.1999684  40.7944804
  15.2770850  36.7354950  41.8971434   3.8814400  25.1636250  45.1554413
   3.5378669  26.0537891  45.0793523   4.2493363  24.9737907  44.2923998
   3.8464683  35.1544861  33.6626848   3.3311306  35.9249466  33.9015235
   3.5741991  34.4809997  34.2859909   1.4311794  29.9994562  38.7212086
   0.5753390  29.6101412  38.5417725   1.8438746  30.0786522  37.8611872
   2.9610940  27.5340905  43.1203646   2.4575736  27.4971040  42.3071451
   3.2541547  28.4433648  43.1800302   8.8198957  37.9077216  35.5980021
   8.0428400  37.5688375  35.1535183   9.4990438  37.9129839  34.9234986
   3.6350986  33.0271953  35.4886629   3.3301121  33.3418102  36.3396772
   4.5881428  33.1053373  35.5313962   2.0797418  39.1862176  37.1379583
   1.5518779  38.4514936  36.8252820   1.5784920  39.9636853  36.8919551
   7.0590264  37.3811197  42.2546629   6.4013938  38.0710458  42.3426758
   7.8630663  37.7707629  42.5980615   5.8695723  35.7355570  40.3050571
   6.3827604  36.3685561  40.8072281   6.5196946  35.1356765  39.9393931
   3.1318097  45.7139894  33.0611242   2.4579796  46.0171591  33.6696200
   3.5183919  46.5168974  32.7116699   2.3476553  33.2105025  42.5508911
   1.4299115  33.4319972  42.3930599   2.7636697  33.2851336  41.6920619
   3.1311601  34.6096441  37.6811592   3.8783420  35.1217838  37.3718714
   3.4003191  34.2880493  38.5415985   1.4038251  37.1054981  34.6638546
   0.4949471  36.8214014  34.7611016   1.4333335  37.5254060  33.8041853
   6.6357519  40.7161571  38.4329714   6.1819846  39.8752481  38.4894904
   6.0051486  41.3522969  38.7704494   5.5790438  31.6453557  39.6630381
   4.8413195  31.1330943  39.9940624   5.8317212  31.2053939  38.8513658
   5.0790458  42.5538068  39.3679532   5.3713432  43.1143125  38.6491897
   5.5889079  42.8466629  40.1232691   5.6802066  24.4229809  40.2572150
   5.9860942  23.5627172  39.9698065   6.4054670  25.0147429  40.0571144
   1.1014339  38.6463725  32.0026625   0.6633769  37.9299584  31.5432262
   1.8424780  38.8739840  31.4411716   3.4889717  33.8002486  47.3553614
   3.8439105  34.0273959  48.2148080   4.1361848  34.1320863  46.7330869
   9.2187454  36.9220922  38.0602943   9.0805353  37.1122518  37.1324132
   8.8623673  37.6840305  38.5170994   9.2456834  38.9897449  43.0714215
   9.6793340  38.8972738  43.9197269   9.9588414  38.9654950  42.4334231
  10.1072383  39.0321150  45.6047100  10.3008273  39.9366960  45.8506375
  10.0073001  38.5728569  46.4385685   1.7608694  28.9179040  48.1037427
   1.1136609  29.6168990  48.0101904   2.5309709  29.3515184  48.4713676
   1.9372828  36.7559805  46.1634247   2.8664888  36.9070965  45.9903214
   1.5163858  36.8443826  45.3082894   1.3309312  45.8819566  35.2758321
   1.5061068  45.4107609  36.0903944   0.6442100  46.5085332  35.5039582
   2.2866375  40.1592072  41.3221622   1.9516208  40.1192842  42.2179272
   1.7870321  39.4936788  40.8492033   5.2225567  37.5048107  31.5958682
   4.6054737  36.7794935  31.4991735   4.7542055  38.2657467  31.2525756
   6.8797106  40.1786599  47.4878442   5.9923884  39.8412521  47.6104841
   7.4495657  39.4469630  47.7247208   3.5084689  29.8854451  40.6076712
   4.0053388  29.1324413  40.2877783   2.7371670  29.9218768  40.0419922
  11.3614446  35.5894816  42.2495004  11.3504323  36.4719532  41.8788937
  10.4931826  35.2366367  42.0549541   4.5914470  38.6426138  38.1815136
   3.6570748  38.7627601  38.0119840   4.7691138  37.7398605  37.9175146
   7.9787021  34.4843457  38.7165170   8.4447473  35.3171449  38.6425472
   8.4294521  34.0188439  39.4210428   6.0463252  40.8287279  35.7151322
   6.3223096  40.7143873  36.6245196   5.1767751  40.4304764  35.6763495
   5.9503684  26.8524044  42.7556071   5.0366763  27.0828271  42.9238278
   6.3796785  26.9362488  43.6070104   5.7210142  35.0413936  45.2555965
   5.0681592  35.2889844  44.6008418   6.0990522  34.2278075  44.9218442
   2.6817316  45.0773630  39.3584135   2.8639711  44.2595285  39.8211888
   3.5050302  45.2941322  38.9209025   3.0159482  44.0041815  36.6199184
   3.5447248  43.4934269  36.0069346   3.2787701  43.6884345  37.4844717
   3.6488885  45.0382650  42.9643300   3.5240025  44.2372390  42.4554246
   4.3067976  45.5328844  42.4757270   5.7123794  42.8391670  44.5922851
   4.7654129  42.7197022  44.5201177   6.0606567  41.9514169  44.6749112
   2.7170227  42.6344387  40.7927203   2.5695189  41.7061094  40.9734773
   3.5423721  42.6564477  40.3084278   6.3204349  43.4572945  41.8792075
   7.2450896  43.2515807  41.7416527   6.1519652  43.2089347  42.7881417
   2.7131741  30.4882224  35.7859320   2.9295356  31.3706862  35.4848148
   2.2325808  30.0968438  35.0564962   1.1653476  30.8707826  44.4564082
   0.9071254  31.7924896  44.4548412   0.6338517  30.4738260  45.1464546
   6.1099665  43.9758613  37.2354167   6.2836543  43.4105035  36.4828019
   6.6028556  44.7759508  37.0533657   1.5855432  27.0039776  40.8165244
   1.6077129  27.0679109  39.8617224   2.0023491  26.1644285  41.0105750
  11.9639056  36.7395036  38.8544467  12.4070202  35.9902361  38.4563590
  11.0865567  36.7305172  38.4718199   7.0974838  43.2925377  34.3351065
   7.7925742  43.9132070  34.5538380   7.4397988  42.4420728  34.6103443
   8.9966261  40.7425083  35.8638396   9.5217585  41.0812356  35.1387716
   8.9088613  39.8072098  35.6801531   8.8058042  38.2250453  48.4822322
   8.8556047  38.0600460  49.4237845   8.6971965  37.3577712  48.0920203
   6.0961804  34.2081381  49.7981629   6.9971667  34.0687846  49.5065627
   6.1709779  34.3735836  50.7379807  10.3076239  40.6447394  48.7264344
  10.0161047  41.0077375  49.5627805   9.6948370  39.9314403  48.5477676
  11.5071921  38.2100274  41.2466914  12.3418812  38.6490078  41.4104475
  11.6431050  37.7338927  40.4275160   8.5563427  35.7680009  47.1944402
   9.0317548  35.9607655  46.3863253   7.6328992  35.8239195  46.9487786
   3.1343643  27.8027853  46.1600236   3.6525587  28.5388879  45.8346724
   2.7798776  28.1091846  46.9946995   3.3856237  24.2228135  41.6801133
   3.6657991  23.5551324  42.3061559   4.1706844  24.4157231  41.1675796
   1.1889706  43.3987129  33.2426159   0.6163673  44.0177316  32.7896631
   1.7622500  43.9486491  33.7766081   7.2565096  32.6445769  45.4272708
   8.2082519  32.7443867  45.4484932   7.0868546  31.8524038  45.9370792
   5.2779475  29.7301352  45.6132109   4.6829407  30.0106365  44.9178597
   4.9929172  30.2195253  46.3848850   4.4086966  43.6824279  34.3734741
   5.3417639  43.6169841  34.5767617   4.3210179  44.5180546  33.9149274
   7.0374982  42.9990149  31.3338689   6.9588614  42.6650013  32.2274447
   7.8584649  43.4911917  31.3330161   9.7353174  35.8651889  44.5415007
   9.7029494  34.9267889  44.7274691  10.3453797  35.9435925  43.8080832
   1.5736504  34.7347942  30.5842211   2.5195609  34.6054150  30.6530629
   1.1950749  33.9962604  31.0611639   9.8847662  32.6562932  44.5873290
   9.3686711  31.8721389  44.4003219  10.7687611  32.3281649  44.7519810
   7.5458389  26.4003948  40.5469103   7.3483210  26.0919036  41.4312435
   8.1558095  27.1265587  40.6767033  15.5529723  36.9267896  43.6821044
  16.2833112  36.6653184  44.2428747  14.9436669  36.1896618  43.7223112
  13.6345021  35.0675758  44.2795495  12.9078184  34.9331723  43.6711987
  13.2192307  35.3752587  45.0852213   1.3741487  27.2034808  36.6741338
   0.5642216  26.8581893  37.0496584   2.0625904  26.8942352  37.2628949
   3.3032036  26.2812855  38.2965634   3.8563074  26.7008308  38.9555658
   3.5402122  25.3548603  38.3388590   6.6810843  28.3913380  37.8044299
   6.1009512  29.0498184  37.4222351   6.4146775  27.5690724  37.3931716
   5.1314409  27.7918437  40.0065619   5.6314187  27.9034972  39.1979938
   5.7750017  27.4879490  40.6466427   5.4635721  30.5513470  36.8600647
   4.5761576  30.8363121  36.6420842   5.8789710  30.3907234  36.0127924
   8.8150257  30.5759991  40.5754986   9.5910647  31.0656444  40.8479603
   8.0898391  31.0018045  41.0326856  11.2522816  31.2887610  41.6328927
  11.8467306  31.0483346  40.9222235  11.3249399  30.5694741  42.2602463
   4.6078934  40.3158145  30.9548667   5.3114784  40.5208147  31.5706323
   3.8841583  40.8834907  31.2197750   5.4376745  36.0668006  37.0750937
   5.3811946  36.5236558  36.2358570   5.9905087  35.3058691  36.8973780
   9.2481550  31.8557738  37.9001057   8.9918485  31.4554374  38.7309264
   8.6234418  32.5701532  37.7751196  13.5593888  34.5953811  40.4072348
  12.9993446  34.6647001  41.1803910  12.9537392  34.4194796  39.6871844
   6.5165632  40.7540674  33.0047127   7.3511236  40.3221873  32.8224602
   6.3549975  40.5822688  33.9324022   6.1711524  37.2572787  34.3703466
   6.1160328  37.0917059  33.4291910   5.5457579  37.9648820  34.5265656
   3.2959769  23.3523673  38.2034722   2.5292165  22.7982160  38.3491404
   3.7070474  23.4245542  39.0648873  15.1449907  51.2710325  43.1002304
  15.7828317  51.1517073  42.3965644  15.0270750  52.2191169  43.1590256
  11.9539613  51.2237753  43.0363828  11.6158125  51.1078818  42.1484363
  12.8229381  50.8228918  43.0164835   9.6547892  49.9926001  32.3680769
   9.9073413  49.4707522  31.6064232   8.7172451  49.8292146  32.4707452
  14.6991175  48.9961779  40.1755512  15.4854264  48.5781202  39.8245929
  14.9629880  49.9007871  40.3437160  20.0999602  48.9337012  41.0788490
  20.8324774  48.3636229  41.3126320  19.3438958  48.5458613  41.5194996
  11.7175722  51.3564254  38.2751833  11.3533929  50.8294875  38.9864754
  12.5742838  50.9662723  38.1018318  17.6225023  42.6458586  45.5383099
  17.2908347  43.5153997  45.3144314  17.0270636  42.3294870  46.2177129
  11.3581209  46.3854153  33.2713181  11.5255611  47.2534390  33.6383652
  11.1678378  46.5481435  32.3474471  17.5153686  47.3653672  42.6176449
  16.6070563  47.2969081  42.3235210  17.4641282  47.8425617  43.4458274
  11.3370430  48.8411811  34.2559848  11.2170055  49.2868862  35.0945328
  10.6423018  49.1897129  33.6973386  19.3815332  45.5670111  44.3954323
  18.7389713  45.8602644  43.7494117  18.8770261  45.4523031  45.2007520
  17.0355496  49.3133284  35.0840182  17.9473352  49.5460671  34.9087880
  16.5265143  49.8970328  34.5215261  11.6727334  48.6730519  46.0935032
  12.5188529  49.0969932  46.2369681  11.6125971  48.0164143  46.7873595
  14.8226779  46.3334887  47.7516205  14.5787711  47.0876948  47.2150481
  15.0986710  46.7120235  48.5863452  16.7765242  52.8773499  46.4293471
  16.9882137  53.5205259  45.7527852  16.7294990  52.0435816  45.9615401
  14.3791471  45.4891320  43.3330043  13.5175950  45.7872574  43.6246781
  14.4053906  45.7061719  42.4011076  10.1321926  50.1556663  36.5493414
  10.8345970  50.6077707  37.0167340   9.8002555  49.5140482  37.1773307
   3.8747260  48.4140216  41.8510547   3.0846314  48.6697744  41.3750658
   4.3658508  49.2288554  41.9562588   5.8262006  48.7784795  38.8094024
   5.0293169  48.8903489  39.3277520   5.5987598  49.1171447  37.9434915
  25.9817063  52.0984203  40.9500800  25.2280771  51.5291601  40.7944804
  26.1164604  52.0646868  41.8971434  14.7208155  40.4928167  45.1554413
  14.3772424  41.3829809  45.0793523  15.0887117  40.3029825  44.2923998
  14.6858437  50.4836779  33.6626848  14.1705061  51.2541383  33.9015235
  14.4135746  49.8101915  34.2859909  12.2705548  45.3286479  38.7212086
  11.4147145  44.9393330  38.5417725  12.6832500  45.4078440  37.8611872
  13.8004695  42.8632823  43.1203646  13.2969490  42.8262958  42.3071451
  14.0935302  43.7725565  43.1800302  10.0447581  42.9471552  42.1269828
  10.9100578  42.7514361  41.7675717  10.1125090  42.7181904  43.0539184
  19.6592711  53.2369133  35.5980021  18.8822154  52.8980293  35.1535183
  20.3384192  53.2421756  34.9234986  14.4744740  48.3563871  35.4886629
  14.1694876  48.6710020  36.3396772  15.4275183  48.4345291  35.5313962
  17.8984018  52.7103114  42.2546629  17.2407693  53.4002376  42.3426758
  18.7024417  53.0999546  42.5980615   7.6509900  45.1773760  39.4986194
   8.2253652  44.9548942  38.7659387   8.2380882  45.2462455  40.2514796
  16.7089477  51.0647487  40.3050571  17.2221359  51.6977479  40.8072281
  17.3590701  50.4648683  39.9393931   7.9779487  47.2078221  33.5182080
   7.1416799  47.5452908  33.8391354   7.8384257  47.0727201  32.5809217
   9.9532568  42.0515009  38.2261264   9.2996980  41.7364026  37.6017879
   9.9113042  41.4290750  38.9521087  13.1870308  48.5396943  42.5508911
  12.2692869  48.7611890  42.3930599  13.6030452  48.6143253  41.6920619
  13.9705356  49.9388358  37.6811592  14.7177175  50.4509756  37.3718714
  14.2396945  49.6172411  38.5415985  16.4184193  46.9745475  39.6630381
  15.6806950  46.4622861  39.9940624  16.6710966  46.5345856  38.8513658
  16.5195820  39.7521727  40.2572150  16.8254697  38.8919090  39.9698065
  17.2448425  40.3439347  40.0571144  10.7916900  50.0475520  40.7648341
  10.8465510  49.0949356  40.6890818   9.9808102  50.2034959  41.2489640
   8.7309260  48.6652579  38.5238720   7.9177125  48.9646750  38.9303912
   9.2268254  48.2708268  39.2413202  14.3283472  49.1294404  47.3553614
  14.6832859  49.3565877  48.2148080  14.9755603  49.4612781  46.7330869
  20.0581208  52.2512840  38.0602943  19.9199107  52.4414436  37.1324132
  19.7017427  53.0132223  38.5170994   8.2223335  46.2370935  44.1399955
   8.8622714  46.0959694  43.4422918   7.3900865  45.9505448  43.7638557
  20.0850588  54.3189367  43.0714215  20.5187095  54.2264656  43.9197269
  20.7982169  54.2946867  42.4334231   5.2251951  46.2071260  38.9172942
   5.4858768  47.1216593  38.8082102   6.0469123  45.7395703  39.0669555
  20.9466138  54.3613068  45.6047100  21.1402028  55.2658878  45.8506375
  20.8466756  53.9020487  46.4385685  12.6002448  44.2470958  48.1037427
  11.9530363  44.9460908  48.0101904  13.3703464  44.6807102  48.4713676
  12.7766583  52.0851723  46.1634247  13.7058643  52.2362883  45.9903214
  12.3557613  52.1735744  45.3082894   7.8517867  47.0525449  30.7179986
   6.9747334  46.9314250  30.3542233   8.3275620  46.2611527  30.4658875
  14.3478443  45.2146369  40.6076712  14.8447143  44.4616331  40.2877783
  13.5765425  45.2510685  40.0419922  22.2008201  50.9186734  42.2495004
  22.1898077  51.8011450  41.8788937  21.3325580  50.5658285  42.0549541
  10.9313412  47.3563752  40.3348397  10.5611200  46.8034792  41.0229302
  11.4272505  46.7521885  39.7823397  18.8180775  49.8135375  38.7165170
  19.2841228  50.6463367  38.6425472  19.2688276  49.3480357  39.4210428
  16.7897438  42.1815962  42.7556071  15.8760518  42.4120189  42.9238278
  17.2190540  42.2654406  43.6070104  16.5603897  50.3705854  45.2555965
  15.9075347  50.6181761  44.6008418  16.9384277  49.5569992  44.9218442
   6.3278746  44.7667742  46.5801503   6.3920072  45.6282573  46.1678901
   6.2645866  44.1541744  45.8473861   2.5796561  48.6467304  36.1592892
   2.8750002  47.7377982  36.1059946   1.6784597  48.6255043  35.8373894
   6.1090808  46.7223301  42.1420441   5.3877394  47.3359268  42.0027914
   6.8984064  47.2581065  42.0637087   8.9117122  44.0577727  48.4161092
   9.4351523  44.3040024  49.1787402   8.6929455  44.8897762  47.9964230
   4.3084403  46.3281402  36.2832217   3.9797109  45.4478781  36.1007323
   4.6623773  46.2729070  37.1708606   7.4226226  46.6154371  36.6507695
   7.7622298  47.1440293  35.9286303   7.8698346  46.9534778  37.4266261
  10.1169667  44.9991422  46.1010763   9.7766487  44.1999235  46.5031443
   9.4108673  45.2993133  45.5287596  10.7686138  42.0840735  44.5538086
  11.5912208  41.6101213  44.4316976  11.0124202  42.8631218  45.0536772
   9.4094373  45.1128993  34.8500988  10.1302735  45.4910246  34.3464704
   8.7859677  45.8317870  34.9535966  13.5525496  45.8174142  35.7859320
  13.7689110  46.6998780  35.4848148  13.0719563  45.4260355  35.0564962
   8.2924717  48.7759855  42.3630065   8.1469298  49.0900158  43.2554346
   7.8149921  49.3944756  41.8100963  10.1521100  45.7662403  42.4110954
  10.1382669  44.8703497  42.0743252  10.8693528  45.7733067  43.0449240
  12.0047231  46.1999743  44.4564082  11.7465009  47.1216814  44.4548412
  11.4732271  45.8030178  45.1464546   9.5557996  44.6476784  37.6798524
   9.6773907  43.7193430  37.8789412   9.2660038  44.6615469  36.7676840
  12.4249186  42.3331694  40.8165244  12.4470883  42.3971027  39.8617224
  12.8417245  41.4936203  41.0105750  22.8032811  52.0686953  38.8544467
  23.2463957  51.3194279  38.4563590  21.9259321  52.0597090  38.4718199
  19.6451796  53.5542370  48.4822322  19.6949801  53.3892378  49.4237845
  19.5365720  52.6869630  48.0920203  16.9355559  49.5373299  49.7981629
  17.8365421  49.3979763  49.5065627  17.0103533  49.7027753  50.7379807
  22.3465675  53.5392192  41.2466914  23.1812567  53.9781996  41.4104475
  22.4824804  53.0630845  40.4275160  19.3957181  51.0971927  47.1944402
  19.8711303  51.2899573  46.3863253  18.4722747  51.1531112  46.9487786
  13.9737398  43.1319770  46.1600236  14.4919342  43.8680797  45.8346724
  13.6192531  43.4383763  46.9946995   5.5536335  47.9924451  34.2761642
   4.8605580  48.0668806  33.6201678   5.3088087  47.2284795  34.7983159
  14.2249992  39.5520053  41.6801133  14.5051746  38.8843242  42.3061559
  15.0100599  39.7449148  41.1675796  18.0958850  47.9737687  45.4272708
  19.0476273  48.0735784  45.4484932  17.9262301  47.1815955  45.9370792
  16.1173230  45.0593270  45.6132109  15.5223162  45.3398283  44.9178597
  15.8322927  45.5487171  46.3848850  20.5746928  51.1943806  44.5415007
  20.5423248  50.2559807  44.7274691  21.1847552  51.2727843  43.8080832
  12.4130259  50.0639859  30.5842211  13.3589364  49.9346067  30.6530629
  12.0344504  49.3254521  31.0611639  20.7241417  47.9854850  44.5873290
  20.2080465  47.2013306  44.4003219  21.6081365  47.6573566  44.7519810
  18.3852144  41.7295865  40.5469103  18.1876965  41.4210954  41.4312435
  18.9951849  42.4557504  40.6767033  26.3923478  52.2559813  43.6821044
  27.1226866  51.9945101  44.2428747  25.7830423  51.5188535  43.7223112
  24.4738775  50.3967676  44.2795495  23.7471939  50.2623641  43.6711987
  24.0586062  50.7044504  45.0852213  10.5973176  47.9889836  30.5197097
   9.6904632  47.6922948  30.5959810  10.8749157  47.6919654  29.6531383
  12.2135242  42.5326725  36.6741338  11.4035970  42.1873810  37.0496584
  12.9019659  42.2234269  37.2628949  14.1425790  41.6104772  38.2965634
  14.6956829  42.0300226  38.9555658  14.3795877  40.6840520  38.3388590
   9.3671961  44.8476771  30.6609076  10.2291125  45.1731669  30.9204893
   9.5522305  44.0608267  30.1482142  17.5204597  43.7205297  37.8044299
  16.9403266  44.3790101  37.4222351  17.2540530  42.8982642  37.3931716
  15.9708164  43.1210355  40.0065619  16.4707942  43.2326890  39.1979938
  16.6143772  42.8171408  40.6466427  16.3029475  45.8805388  36.8600647
  15.4155330  46.1655038  36.6420842  16.7183464  45.7199151  36.0127924
  19.6544011  45.9051909  40.5754986  20.4304402  46.3948361  40.8479603
  18.9292146  46.3309963  41.0326856  22.0916570  46.6179528  41.6328927
  22.6861061  46.3775264  40.9222235  22.1643154  45.8986659  42.2602463
  16.2770499  51.3959924  37.0750937  16.2205700  51.8528475  36.2358570
  16.8298841  50.6350608  36.8973780  20.0875305  47.1849656  37.9001057
  19.8312239  46.7846291  38.7309264  19.4628173  47.8993450  37.7751196
  24.3987643  49.9245729  40.4072348  23.8387201  49.9938918  41.1803910
  23.7931146  49.7486714  39.6871844  17.0105278  52.5864705  34.3703466
  16.9554082  52.4208976  33.4291910  16.3851334  53.2940738  34.5265656
  10.3201404  42.0872814  33.9488785  10.3080074  43.0314654  34.1057056
  11.2124826  41.9042959  33.6548246  14.1353523  38.6815591  38.2034722
  13.3685919  38.1274077  38.3491404  14.5464228  38.7537459  39.0648873
  25.5601909  55.8220085  45.1554413  25.2166178  56.7121727  45.0793523
  25.9280872  55.6321743  44.2923998  27.3589575  55.0813644  40.2572150
  27.6648451  54.2211008  39.9698065  28.0842179  55.6731265  40.0571144
  25.0643746  54.8811970  41.6801133  25.3445500  54.2135159  42.3061559
  25.8494353  55.0741066  41.1675796  29.2245898  57.0587783  40.5469103
  29.0270719  56.7502871  41.4312435  29.8345604  57.7849422  40.6767033
  24.9747278  54.0107508  38.2034722  24.2079674  53.4565995  38.3491404
  25.3857983  54.0829377  39.0648873   4.3056153  12.9480530  29.8247610
   4.9434563  12.8287277  29.1210950   4.1876996  13.8961374  29.8835563
   1.1145860  12.9007958  29.7609135   0.7764371  12.7849023  28.8729670
   1.9835628  12.4999123  29.7410141   1.5965643  14.0542810  35.7195341
   1.5854284  13.6595608  34.8475844   1.7586282  13.3208883  36.3129112
   2.5532234  18.4214402  21.0620491   1.9020214  19.0068483  20.6754505
   3.3476597  18.9520597  21.1215528   3.8597422  10.6731984  26.9000818
   4.6460511  10.2551407  26.5491235   4.1236126  11.5778076  27.0682467
   4.0307499  16.1104834  21.5989475   3.3953332  16.1839461  22.3110380
   3.7004906  16.6998433  20.9208555   9.2605849  10.6107217  27.8033797
   9.9931021  10.0406434  28.0371626   8.5045205  10.2228818  28.2440303
   0.8781969  13.0334459  24.9997139   0.5140176  12.5065080  25.7110061
   1.7349085  12.6432928  24.8263625   3.2762789  16.5241337  31.6624318
   2.9763512  17.4266376  31.5540126   2.9313849  16.2573520  32.5145471
   6.6759933   9.0423877  29.3421756   5.7676810   8.9739286  29.0480517
   6.6247529   9.5195822  30.1703581   8.5421579   7.2440316  31.1199630
   7.8995959   7.5372849  30.4739424   8.0376508   7.1293236  31.9252826
   6.1961743  10.9903489  21.8085489   7.1079599  11.2230876  21.6333186
   5.6871390  11.5740533  21.2460567   4.4802511  15.4128117  35.4446781
   4.8885867  14.9710527  34.7001414   3.7579772  14.8380744  35.6980974
   0.8333581  10.3500724  32.8180338   1.6794776  10.7740137  32.9614987
   0.7732218   9.6934348  33.5118901   4.8031325  15.9729307  29.1999070
   4.1740188  16.1375022  28.4975138   4.4156987  16.3870917  29.9710034
   8.6820557  16.9083745  26.5543434   7.9971595  17.2882647  26.0040467
   8.7664406  17.5179072  27.2875382   3.9833026   8.0105092  34.4761512
   3.7393958   8.7647152  33.9395788   4.2592956   8.3890440  35.3108759
   5.9371489  14.5543704  33.1538778   6.1488384  15.1975464  32.4773159
   5.8901237  13.7206021  32.6860708   3.5397718   7.1661525  30.0575350
   2.6782197   7.4642779  30.3492087   3.5660152   7.3831924  29.1256382
   7.0517317  17.4315660  31.3261135   7.8734760  17.0295847  31.0443817
   7.0479719  17.3283894  32.2777251  15.1423310  13.7754408  27.6746106
  14.3887018  13.2061806  27.5190111  15.2770851  13.7417073  28.6216741
   2.1590414  19.2691377  37.4801168   1.7154268  18.4827756  37.1622072
   2.8207628  19.4570528  36.8145059   4.2571652  19.5494177  35.5082569
   4.2390128  20.3703058  35.0162838   5.1791572  19.4248252  35.7332710
   3.8464684  12.1606984  20.3872154   3.3311307  12.9311588  20.6260542
   3.5741992  11.4872120  21.0105216   8.8198958  14.9139338  22.3225328
   8.0428401  14.5750498  21.8780490   9.4990439  14.9191961  21.6480293
   3.6350987  10.0334076  22.2131935   3.3301123  10.3480225  23.0642079
   4.5881429  10.1115495  22.2559268   2.0797419  16.1924299  23.8624889
   1.5518781  15.4577059  23.5498127   1.5784922  16.9698975  23.6164858
   7.0590265  14.3873319  28.9791936   6.4013939  15.0772581  29.0672064
   7.8630664  14.7769751  29.3225922   5.8695724  12.7417692  27.0295878
   6.3827606  13.3747684  27.5317587   6.5196948  12.1418888  26.6639238
   3.1318098  22.7202016  19.7856549   2.4579797  23.0233713  20.3941506
   3.5183920  23.5231097  19.4362006   2.3476555  10.2167148  29.2754218
   1.4299116  10.4382095  29.1175906   2.7636698  10.2913458  28.4165925
   3.1311602  11.6158563  24.4056898   3.8783421  12.1279961  24.0964020
   3.4003192  11.2942616  25.2661292   1.4038253  14.1117104  21.3883853
   0.4949472  13.8276137  21.4856322   1.4333336  14.5316183  20.5287159
   6.6357520  17.7223694  25.1575020   6.1819847  16.8814603  25.2140211
   6.0051487  18.3585092  25.4949800   5.5790440   8.6515680  26.3875688
   4.8413196   8.1393066  26.7185930   5.8317213   8.2116061  25.5758964
   5.0790459  19.5600190  26.0924838   5.3713434  20.1205247  25.3737204
   5.5889080  19.8528751  26.8477997   1.1014340  15.6525848  18.7271931
   0.6633770  14.9361707  18.2677569   1.8424781  15.8801963  18.1657023
   3.4889718  10.8064609  34.0798921   3.8439106  11.0336082  34.9393386
   4.1361850  11.1382986  33.4576176   9.2187455  13.9283045  24.7848250
   9.0805354  14.1184641  23.8569439   8.8623674  14.6902428  25.2416301
   9.2456835  15.9959572  29.7959521   9.6793341  15.9034861  30.6442575
   9.9588416  15.9717072  29.1579537   2.9784730  19.5961666  31.3292622
   3.0321752  20.1652602  32.0970338   2.1099511  19.7663551  30.9646659
  10.1072384  16.0383272  32.3292407  10.3008274  16.9429083  32.5751682
  10.0073003  15.5790691  33.1630992   5.1687493  16.1890015  37.9033287
   5.0172999  15.9600567  36.9863371   5.1592173  17.1460617  37.9164632
   1.9372829  13.7621928  32.8879554   2.8664889  13.9133088  32.7148521
   1.5163859  13.8505949  32.0328200   1.3309313  22.8881689  22.0003628
   1.5061069  22.4169732  22.8149251   0.6442101  23.5147455  22.2284889
   2.2866376  17.1654195  28.0466929   1.9516209  17.1254965  28.9424579
   1.7870322  16.4998911  27.5737339   5.2225568  14.5110229  18.3203989
   4.6054739  13.7857058  18.2237041   4.7542057  15.2719590  17.9771063
   6.8779700  19.2209138  35.9809769   6.8192246  18.5368358  35.3140352
   7.2799218  19.9628128  35.5290395   6.8797107  17.1848722  34.2123749
   5.9923886  16.8474643  34.3350148   7.4495658  16.4531753  34.4492514
  11.3614448  12.5956939  28.9740310  11.3504324  13.4781654  28.6034244
  10.4931827  12.2428490  28.7794847   2.8696944  21.7437008  33.3343151
   3.5824916  22.3784473  33.2619052   2.3786973  21.8400874  32.5183152
   4.5914471  15.6488261  24.9060442   3.6570750  15.7689723  24.7365147
   4.7691139  14.7460727  24.6420452   7.9787022  11.4905580  25.4410476
   8.4447474  12.3233572  25.3670779   8.4294523  11.0250562  26.1455735
   6.0463253  17.8349401  22.4396628   6.3223097  17.7205996  23.3490503
   5.1767752  17.4366886  22.4008802   5.7210143  12.0476059  31.9801272
   5.0681594  12.2951966  31.3253725   6.0990523  11.2340197  31.6463749
   2.6817317  22.0835752  26.0829442   2.8639712  21.2657408  26.5457194
   3.5050303  22.3003444  25.6454332   3.0159483  21.0103937  23.3444491
   3.5447249  20.4996392  22.7314653   3.2787702  20.6946467  24.2090024
   1.7697716  12.7895870  38.4667309   1.0938353  12.6889999  39.1369684
   2.5925350  12.6335084  38.9303306   0.5120499  24.0962797  32.7024925
   1.0638807  24.2594419  33.4674010   0.8526693  24.6867235  32.0304950
   5.3631374  18.9224055  38.5573579   5.9071278  19.5354013  38.0628534
   4.7818218  19.4803633  39.0740592   3.6488887  22.0444773  29.6888607
   3.5240026  21.2434513  29.1799553   4.3067978  22.5390966  29.2002577
   5.7123795  19.8453793  31.3168157   4.7654130  19.7259144  31.2446484
   6.0606568  18.9576291  31.3994419   2.7170228  19.6406509  27.5172509
   2.5695191  18.7123217  27.6980079   3.5423722  19.6626600  27.0329585
   6.3204350  20.4635068  28.6037382   7.2450898  20.2577929  28.4661833
   6.1519653  20.2151469  29.5126724   6.1099666  20.9820735  23.9599474
   6.2836544  20.4167158  23.2073326   6.6028558  21.7821630  23.7778964
  11.9639057  13.7457158  25.5789773  12.4070204  12.9964484  25.1808897
  11.0865568  13.7367295  25.1963505   7.0974839  20.2987500  21.0596372
   7.7925743  20.9194193  21.2783687   7.4397989  19.4482851  21.3348750
   8.9966262  17.7487205  22.5883703   9.5217586  18.0874478  21.8633023
   8.9088614  16.8134221  22.4046837   0.6586311  21.6621279  34.7173579
   0.9673437  21.4170426  35.5896279   1.4561793  21.8667918  34.2292449
   8.6860168  18.3820109  37.8934901   7.8955712  18.3644248  37.3539400
   8.4493523  18.9208403  38.6483937   8.8058043  15.2312575  35.2067629
   8.8556048  15.0662583  36.1483152   8.6971966  14.3639834  34.8165510
   6.0961805  11.2143503  36.5226936   6.9971668  11.0749968  36.2310934
   6.1709780  11.3797958  37.4625113  10.3076240  17.6509517  35.4509651
  10.0161048  18.0139497  36.2873112   9.6948371  16.9376525  35.2722983
  11.5071922  15.2162397  27.9712221  12.3418814  15.6552201  28.1349781
  11.6431051  14.7401050  27.1520467   8.5563428  12.7742132  33.9189709
   9.0317550  12.9669778  33.1108560   7.6328993  12.8301317  33.6733092
   1.1889707  20.4049252  19.9671465   0.6163674  21.0239439  19.5141937
   1.7622501  20.9548613  20.5011387   7.2565097   9.6507892  32.1518014
   8.2082520   9.7505989  32.1730238   7.0868548   8.8586160  32.6616099
   5.2779477   6.7363475  32.3377415   4.6829409   7.0168488  31.6423904
   4.9929173   7.2257376  33.1094156   4.4086967  20.6886402  21.0980048
   5.3417640  20.6231963  21.3012923   4.3210180  21.5242669  20.6394580
   7.0374984  20.0052272  18.0583995   6.9588615  19.6712136  18.9519753
   7.8584651  20.4974040  18.0575468   9.7353175  12.8714011  31.2660314
   9.7029495  11.9330012  31.4519998  10.3453799  12.9498048  30.5326139
   1.5736506  11.7410064  17.3087518   2.5195610  11.6116272  17.3775936
   1.1950751  11.0024726  17.7856946   9.8847663   9.6625055  31.3118597
   9.3686712   8.8783511  31.1248526  10.7687612   9.3343771  31.4765117
  15.5529725  13.9330018  30.4066351  16.2833113  13.6715306  30.9674054
  14.9436670  13.1958740  30.4468419  13.6345022  12.0737881  31.0040802
  12.9078185  11.9393846  30.3957293  13.2192309  12.3814709  31.8097520
   1.4575198  15.7927810  38.7688175   2.3778208  15.9706409  38.9628221
   1.4224781  14.8483856  38.6167874   6.6810844   5.3975502  24.5289605
   6.1009513   6.0560306  24.1467658   6.4146777   4.5752847  24.1177023
   5.4635722   7.5575593  23.5845954   4.5761577   7.8425243  23.3666148
   5.8789711   7.3969356  22.7373231   8.8150258   7.5822114  27.3000293
   9.5910648   8.0718566  27.5724910   8.0898392   8.0080168  27.7572162
  11.2522817   8.2949733  28.3574234  11.8467308   8.0545469  27.6467542
  11.3249400   7.5756864  28.9847770   4.6078935  17.3220267  17.6793974
   5.3114786  17.5270270  18.2951629   3.8841584  17.8897029  17.9443057
   5.4376746  13.0730129  23.7996244   5.3811947  13.5298680  22.9603876
   5.9905088  12.3120813  23.6219087   9.2481552   8.8619861  24.6246363
   8.9918486   8.4616496  25.4554571   8.6234420   9.5763654  24.4996502
  13.5593890  11.6015934  27.1317655  12.9993448  11.6709123  27.9049217
  12.9537393  11.4256918  26.4117151   6.5165633  17.7602797  19.7292434
   7.3511237  17.3283995  19.5469908   6.3549976  17.5884810  20.6569328
   6.1711525  14.2634910  21.0948773   6.1160329  14.0979181  20.1537217
   5.5457580  14.9710943  21.2510963   3.4857432  16.5683822  40.4202336
   4.3548592  16.7424474  40.0588971   3.0064184  17.3878239  40.2978065
  15.1449908  28.2772448  29.8247610  15.7828318  28.1579195  29.1210950
  15.0270751  29.2253292  29.8835563  11.9539614  28.2299876  29.7609135
  11.6158126  28.1140941  28.8729670  12.8229382  27.8291041  29.7410141
   7.8126430  30.0835352  25.7506026   7.2491295  29.9925289  24.9822314
   7.6978825  29.2635257  26.2308519  12.4359397  29.3834728  35.7195341
  12.4248038  28.9887526  34.8475844  12.5980037  28.6500800  36.3129112
   5.3590862  31.5786544  28.5890247   6.1512154  31.2377369  28.1736546
   5.5987512  31.6881519  29.5092400  13.3925989  33.7506320  21.0620491
  12.7413968  34.3360400  20.6754505  14.1870351  34.2812515  21.1215528
   7.3181616  30.8395457  21.4607625   8.0912492  30.2924444  21.3220501
   7.6707015  31.7039706  21.6722087   9.1566658  32.1671839  34.6674525
   8.8656524  33.0717470  34.5521191   9.7923643  32.2088367  35.3818594
  10.0822865  29.5448688  31.2575884  10.6786438  29.3204710  30.5432847
  10.1397837  28.8033433  31.8601332   9.6547894  26.9988123  19.0926075
   9.9073414  26.4769645  18.3309538   8.7172453  26.8354269  19.1952759
  14.6991176  26.0023902  26.9000818  15.4854266  25.5843325  26.5491235
  14.9629881  26.9069994  27.0682467  14.8701254  31.4396752  21.5989475
  14.2347087  31.5131378  22.3110380  14.5398660  32.0290351  20.9208555
   9.3744182  28.9016229  21.2950450   9.2580440  28.2261133  21.9631534
   9.4846442  28.4148603  20.4782603  11.7175723  28.3626376  24.9997139
  11.3533931  27.8356997  25.7110061  12.5742839  27.9724845  24.8263625
  11.3581210  23.3916276  19.9958488  11.5255613  24.2596512  20.3628959
  11.1678379  23.5543558  19.0719777  14.1156543  31.8533255  31.6624318
  13.8157267  32.7558294  31.5540126  13.7707603  31.5865438  32.5145471
   7.5669025  28.3047052  27.6961023   6.6419521  28.1723266  27.9038714
   7.8153438  29.0841271  28.1930965  17.5153687  24.3715795  29.3421756
  16.6070565  24.3031204  29.0480517  17.4641283  24.8487740  30.1703581
  11.3370431  25.8473933  20.9805155  11.2170056  26.2930984  21.8190635
  10.6423020  26.1959251  20.4218693   4.9277836  27.9480325  28.5304812
   5.0570217  28.2014804  29.4444224   4.2475287  28.5408033  28.2109467
   9.0977323  38.6177575  24.6295286   9.0201353  39.5685400  24.7083767
   8.4938967  38.2723448  25.2870212  11.5894553  25.7905441  37.2856653
  10.8127887  26.3499361  37.2759518  12.2285116  26.2762224  37.8071523
  17.0355497  26.3195407  21.8085489  17.9473353  26.5522793  21.6333186
  16.5265144  26.9032451  21.2460567   9.8440925  28.5990894  36.8474620
  10.5855610  29.1375938  36.5709444   9.1377911  29.2257183  37.0046172
  15.3196265  30.7420034  35.4446781  15.7279621  30.3002445  34.7001414
  14.5973527  30.1672662  35.6980974  11.6727335  25.6792641  32.8180338
  12.5188530  26.1032055  32.9614987  11.6125973  25.0226266  33.5118901
  15.6425080  31.3021225  29.1999070  15.0133942  31.4666939  28.4975138
  15.2550742  31.7162835  29.9710034  14.8226780  23.3397010  34.4761512
  14.5787712  24.0939070  33.9395788  15.0986711  23.7182357  35.3108759
  16.7765243  29.8835622  33.1538778  16.9882138  30.5267382  32.4773159
  16.7294991  29.0497939  32.6860708  14.3791472  22.4953443  30.0575350
  13.5175951  22.7934696  30.3492087  14.4053907  22.7123842  29.1256382
  11.1953042  31.0395633  26.4649155  11.6591387  31.3183336  25.6753778
  10.9309840  30.1379078  26.2822246   8.0877123  30.5867115  29.4028919
   8.6578480  31.0154383  28.7646403   8.6785234  30.3049699  30.1013104
  10.1321928  27.1618786  23.2738721  10.8345971  27.6139829  23.7412647
   9.8002556  26.5202604  23.9018614   8.5802289  25.7530542  37.6489930
   7.9500950  26.4346823  37.8825327   8.4738377  25.6413624  36.7043068
   3.8747262  25.4202338  28.5755854   3.0846316  25.6759867  28.0995965
   4.3658509  26.2350676  28.6807895  17.8911071  32.7607577  31.3261135
  18.7128515  32.3587765  31.0443817  17.8873474  32.6575812  32.2777251
   5.8262007  25.7846917  25.5339331   5.0293170  25.8965612  26.0522826
   5.5987599  26.1233570  24.6680221  11.6567675  32.3091621  33.4821845
  11.7212107  32.7712028  34.3180017  10.9478598  31.6788986  33.6104155
   2.1584965  25.6732829  31.0070845   2.4093003  26.5579839  31.2728421
   2.6944513  25.4937430  30.2345937  11.3715692  33.9759728  23.3500826
  11.2361367  34.8211264  23.7785674  11.9125505  34.1779006  22.5866760
   7.8583032  20.0551308  40.0115181   7.4649977  19.5017507  40.6862825
   8.6749172  20.3661887  40.4021698   4.8245090  31.4935166  23.9228751
   5.3369610  32.2878416  24.0734315   5.4767802  30.7961457  23.8562352
   6.6339974  34.6100923  26.0051504   6.8106603  35.5318887  25.8172488
   7.4296808  34.2959342  26.4345884  10.7750993  21.4709187  37.6035438
  11.5160706  22.0716340  37.5239900  11.0068916  20.7286825  37.0453480
   5.9192331  26.6565554  35.8813667   5.8045846  25.7550812  36.1820766
   5.0636849  26.9029251  35.5298484  12.9984169  34.5983295  37.4801168
  12.5548023  33.8119673  37.1622072  13.6601382  34.7862445  36.8145059
   7.7571290  36.1279096  32.0061846   8.3078715  35.9996160  31.2338840
   6.9182766  36.4273985  31.6556739  15.0965407  34.8786095  35.5082569
  15.0783882  35.6994976  35.0162838  16.0185327  34.7540170  35.7332710
  11.5538461  32.3930224  36.3506077  12.0866798  31.6318512  36.1205385
  11.0252542  32.1003876  37.0930232  14.7208156  17.4990290  31.8799719
  14.3772425  18.3891932  31.8038830  15.0887118  17.3091948  31.0169304
   2.7894006  29.8223821  24.6988321   3.6269228  30.2320829  24.4822029
   2.9672274  28.8823263  24.6688515  14.6858438  27.4898901  20.3872154
  14.1705062  28.2603506  20.6260542  14.4135747  26.8164037  21.0105216
  12.2705550  22.3348602  25.4457393  11.4147146  21.9455452  25.2663031
  12.6832501  22.4140563  24.5857178  13.8004696  19.8694945  29.8448952
  13.2969492  19.8325080  29.0316758  14.0935303  20.7787688  29.9045609
  10.0447582  19.9533675  28.8515134  10.9100579  19.7576484  28.4921024
  10.1125091  19.7244027  29.7784491  19.6592713  30.2431256  22.3225328
  18.8822155  29.9042415  21.8780490  20.3384194  30.2483879  21.6480293
  14.4744742  25.3625993  22.2131935  14.1694877  25.6772142  23.0642079
  15.4275184  25.4407413  22.2559268  12.9191174  31.5216217  23.8624889
  12.3912535  30.7868976  23.5498127  12.4178676  32.2990893  23.6164858
  17.8984020  29.7165237  28.9791936  17.2407694  30.4064498  29.0672064
  18.7024419  30.1061669  29.3225922   7.6509901  22.1835883  26.2231501
   8.2253653  21.9611064  25.4904694   8.2380884  22.2524577  26.9760102
  16.7089478  28.0709610  27.0295878  17.2221360  28.7039602  27.5317587
  17.3590702  27.4710805  26.6639238   7.9779488  24.2140344  20.2427386
   7.1416800  24.5515030  20.5636661   7.8384258  24.0789324  19.3054523
   9.9532569  19.0577132  24.9506570   9.2996981  18.7426149  24.3263185
   9.9113043  18.4352872  25.6766393  11.0643774  29.3396427  16.8659862
  10.1570835  29.1085680  17.0651011  11.5614806  28.5434046  17.0533844
  13.9711853  38.0493934  19.7856549  13.2973551  38.3525631  20.3941506
  14.3577675  38.8523014  19.4362006  13.1870309  25.5459065  29.2754218
  12.2692871  25.7674012  29.1175906  13.6030453  25.6205376  28.4165925
  13.9705357  26.9450481  24.4056898  14.7177176  27.4571878  24.0964020
  14.2396947  26.6234534  25.2661292  12.2432007  29.4409022  21.3883853
  11.3343226  29.1568055  21.4856322  12.2727091  29.8608100  20.5287159
  17.4751275  33.0515611  25.1575020  17.0213602  32.2106521  25.2140211
  16.8445241  33.6877010  25.4949800  16.4184194  23.9807597  26.3875688
  15.6806951  23.4684983  26.7185930  16.6710968  23.5407979  25.5758964
  15.9184214  34.8892108  26.0924838  16.2107188  35.4497165  25.3737204
  16.4282834  35.1820669  26.8477997  16.5195821  16.7583849  26.9817457
  16.8254698  15.8981213  26.6943372  17.2448426  17.3501469  26.7816451
   2.8120178  27.1614536  25.3699055   2.6144577  26.5683897  24.6450121
   2.2566842  26.8566746  26.0874994  10.7916901  27.0537642  27.4893648
  10.8465511  26.1011479  27.4136125   9.9808103  27.2097081  27.9734946
  11.9408095  30.9817765  18.7271931  11.5027525  30.2653624  18.2677569
  12.6818536  31.2093880  18.1657023   8.7309261  25.6714702  25.2484027
   7.9177127  25.9708873  25.6549219   9.2268255  25.2770391  25.9658509
  10.8817839  35.6672459  27.1818291  10.8394018  35.8933305  26.2526824
  11.7980538  35.4335834  27.3304093  14.3283473  26.1356527  34.0798921
  14.6832860  26.3628000  34.9393386  14.9755604  26.4674903  33.4576176
   8.2223336  23.2433058  30.8645262   8.8622715  23.1021817  30.1668225
   7.3900866  22.9567571  30.4883864   8.9983640  32.5435488  26.9780254
   9.7924238  32.0485808  26.7762829   8.2875332  32.0153351  26.6147960
  13.8178484  34.9253584  31.3292622  13.8715507  35.4944520  32.0970338
  12.9493266  35.0955469  30.9646659   5.3066403  26.6878570  23.0540007
   4.3763991  26.6263025  23.2709969   5.4023875  26.1654523  22.2576648
   5.2251952  23.2133383  25.6418249   5.4858770  24.1278716  25.5327409
   6.0469125  22.7457825  25.7914861   6.6976878  24.6271140  32.8117073
   7.3699931  24.4188502  32.1629722   5.8706664  24.4293226  32.3722305
  12.6002450  21.2533081  34.8282734  11.9530365  21.9523030  34.7347210
  13.3703465  21.6869225  35.1958982  16.0081248  31.5181933  37.9033287
  15.8566754  31.2892485  36.9863371  15.9985927  32.4752534  37.9164632
  12.7766584  29.0913846  32.8879554  13.7058644  29.2425005  32.7148521
  12.3557614  29.1797866  32.0328200  11.5754916  33.1164510  30.6578091
  11.4366001  32.7483294  31.5304029  10.7869512  33.6312149  30.4862049
  12.1703068  38.2173606  22.0003628  12.3454823  37.7461650  22.8149251
  11.4835856  38.8439373  22.2284889  13.1260131  32.4946113  28.0466929
  12.7909964  32.4546883  28.9424579  12.6264077  31.8290829  27.5737339
   7.1004375  27.9013743  33.5719510   6.9624173  27.1693982  34.1731049
   8.0109298  27.8122643  33.2903698  16.0619323  29.8402147  18.3203989
  15.4448493  29.1148975  18.2237041  15.5935811  30.6011507  17.9771063
   9.7286676  27.6133702  33.0603190  10.4386294  26.9726894  33.0189808
   9.6855984  27.8646597  33.9829371  17.7173454  34.5501055  35.9809769
  17.6586000  33.8660276  35.3140352  18.1192973  35.2920045  35.5290395
   8.4415609  24.5998920  34.8798829   7.9052967  24.1489658  35.5320426
   7.8532318  24.7344829  34.1369294   6.7364153  41.3662969  28.7743488
   6.9760751  41.9981493  29.4522507   5.8933349  41.0151009  29.0608847
   7.8517868  24.0587571  17.4425293   6.9747335  23.9376372  17.0787540
   8.3275622  23.2673650  17.1904182  17.7190861  32.5140639  34.2123749
  16.8317640  32.1766561  34.3350148  18.2889413  31.7823671  34.4492514
   4.1754731  23.7354928  31.9651824   4.0912919  23.1280597  31.2302234
   3.3537437  24.2263946  31.9661320  11.2492015  37.1742092  31.1784992
  11.1762186  37.9797063  31.6904297  10.8069408  37.3734058  30.3533013
  11.0381794  36.4113862  24.6887814  10.2549316  36.9535542  24.7826038
  11.7374540  36.9287841  25.0882055  14.3478445  22.2208491  27.3322019
  14.8447144  21.4678453  27.0123089  13.5765426  22.2572808  26.7665228
  13.7090698  37.0728926  33.3343151  14.4218671  37.7076391  33.2619052
  13.2180727  37.1692792  32.5183152  15.4308225  30.9780178  24.9060442
  14.4964504  31.0981641  24.7365147  15.6084894  30.0752645  24.6420452
  10.9313413  24.3625874  27.0593704  10.5611201  23.8096915  27.7474609
  11.4272506  23.7584008  26.5068704  18.8180777  26.8197498  25.4410476
  19.2841229  27.6525489  25.3670779  19.2688277  26.3542479  26.1455735
   8.7602612  34.8223369  34.1548721   9.4612071  35.4559852  34.3078116
   8.2897727  35.1638101  33.3944361  16.8857008  33.1641319  22.4396628
  17.1616852  33.0497914  23.3490503  16.0161506  32.7658804  22.4008802
  16.7897439  19.1878085  29.4801378  15.8760519  19.4182312  29.6483585
  17.2190541  19.2716529  30.3315410  16.5603898  27.3767977  31.9801272
  15.9075348  27.6243884  31.3253725  16.9384278  26.5632115  31.6463749
  13.5211072  37.4127670  26.0829442  13.7033466  36.5949326  26.5457194
  14.3444058  37.6295362  25.6454332  13.8553237  36.3395855  23.3444491
  14.3841004  35.8288310  22.7314653  14.1181457  36.0238385  24.2090024
  12.6091471  28.1187788  38.4667309  11.9332108  28.0181917  39.1369684
  13.4319105  27.9627001  38.9303306   4.3570330  34.3559724  31.0879824
   4.9423767  33.6103412  31.2207728   4.1595168  34.6663681  31.9716488
   7.2108985  37.3910972  26.1042267   6.5419360  37.8757099  25.6206307
   7.0721855  37.6380192  27.0185645  11.3514254  39.4254715  32.7024925
  11.9032562  39.5886337  33.4674010  11.6920447  40.0159153  32.0304950
   6.3278747  21.7729865  33.3046810   6.3920074  22.6344696  32.8924207
   6.2645867  21.1603867  32.5719168   5.8031020  23.8452997  36.9519844
   6.4303058  23.4630075  37.5657368   4.9458938  23.6267199  37.3175536
  16.2025128  34.2515973  38.5573579  16.7465032  34.8645931  38.0628534
  15.6211973  34.8095551  39.0740592   2.5796562  25.6529427  22.8838199
   2.8750003  24.7440105  22.8305252   1.6784598  25.6317166  22.5619201
  14.4882641  37.3736691  29.6888607  14.3633781  36.5726431  29.1799553
  15.1461732  37.8682884  29.2002577   6.1090809  23.7285423  28.8665747
   5.3877395  24.3421391  28.7273221   6.8984065  24.2643188  28.7882393
  16.5517549  35.1745711  31.3168157  15.6047885  35.0551062  31.2446484
  16.9000323  34.2868209  31.3994419   8.9117123  21.0639850  35.1406399
   9.4351525  21.3102146  35.9032708   8.6929456  21.8959884  34.7209536
   4.3084404  23.3343524  23.0077524   3.9797110  22.4540903  22.8252630
   4.6623775  23.2791193  23.8953913  13.5563983  34.9698427  27.5172509
  13.4088945  34.0415134  27.6980079  14.3817476  34.9918518  27.0329585
   7.4226227  23.6216494  23.3753002   7.7622300  24.1502415  22.6531610
   7.8698348  23.9596900  24.1511568  17.1598105  35.7926986  28.6037382
  18.0844652  35.5869847  28.4661833  16.9913408  35.5443387  29.5126724
  10.1169668  22.0053545  32.8256070   9.7766488  21.2061358  33.2276749
   9.4108674  22.3055256  32.2532903  10.7686140  19.0902857  31.2783393
  11.5912209  18.6163335  31.1562283  11.0124203  19.8693341  31.7782079
   9.4094374  22.1191116  21.5746294  10.1302737  22.4972368  21.0710011
   8.7859678  22.8379992  21.6781272  13.5525497  22.8236265  22.5104627
  13.7689111  23.7060902  22.2093455  13.0719564  22.4322478  21.7810269
   8.2924718  25.7821978  29.0875371   8.1469299  26.0962281  29.9799653
   7.8149922  26.4006878  28.5346270  10.1521101  22.7724526  29.1356261
  10.1382670  21.8765619  28.7988559  10.8693529  22.7795190  29.7694547
  12.0047232  23.2061866  31.1809388  11.7465010  24.1278937  31.1793719
  11.4732272  22.8092301  31.8709852  16.9493421  36.3112653  23.9599474
  17.1230298  35.7459076  23.2073326  17.4422312  37.1113548  23.7778964
   2.7670381  28.3227322  32.0263032   2.2223849  29.0987130  32.1583307
   3.6449730  28.6698127  31.8682154   9.5557997  21.6538906  24.4043831
   9.6773908  20.7255552  24.6034718   9.2660040  21.6677592  23.4922146
  12.4249188  19.3393817  27.5410551  12.4470884  19.4033150  26.5862530
  12.8417247  18.4998325  27.7351057  17.9368593  35.6279418  21.0596372
  18.6319498  36.2486110  21.2783687  18.2791743  34.7774769  21.3348750
   3.5536402  27.4497218  34.9193189   2.8118139  27.5979854  35.5057820
   3.2329147  27.7105484  34.0559939  19.8360016  33.0779123  22.5883703
  20.3611340  33.4166396  21.8633023  19.7482369  32.1426138  22.4046837
  11.4980065  36.9913197  34.7173579  11.8067192  36.7462343  35.5896279
  12.2955547  37.1959835  34.2292449  11.5200677  39.1451106  26.9478956
  11.0805667  38.6527485  27.6411813  12.2708794  38.6024074  26.7071031
   3.9993016  35.3362647  26.9503584   4.8251036  35.0366419  26.5702227
   3.6487068  34.5670270  27.3993373   8.9674549  34.6889115  29.0201257
   8.3454559  34.0259820  28.7203485   9.6379416  34.7150247  28.3374905
   2.2001621  33.2548974  27.9092517   1.3633529  32.8271148  27.7276519
   2.1725267  33.4481417  28.8463309   9.0399077  23.1670903  38.6133764
   9.0887232  24.0433026  38.2311533   9.5821591  22.6248297  38.0405407
  19.5253922  33.7112027  37.8934901  18.7349466  33.6936166  37.3539400
  19.2887277  34.2500320  38.6483937  19.6451798  30.5604493  35.2067629
  19.6949802  30.3954501  36.1483152  19.5365721  29.6931752  34.8165510
   8.5288056  33.2393039  22.4959718   8.6776177  33.9228503  21.8426391
   9.3354500  33.2198129  23.0109174  11.2698365  23.9202276  35.3680122
  10.4001675  24.2135842  35.0962711  11.5057846  24.5042721  36.0887386
   6.2840689  29.2658216  23.5020787   6.0386731  28.3620546  23.7000997
   6.4536604  29.2675367  22.5600265  13.9737399  20.1381893  32.8845543
  14.4919343  20.8742920  32.5592031  13.6192532  20.4445886  33.7192302
   5.5536337  24.9986574  21.0006948   4.8605582  25.0730929  20.3446984
   5.3088089  24.2346918  21.5228465  14.2249993  16.5582175  28.4046439
  14.5051747  15.8905364  29.0306866  15.0100600  16.7511271  27.8921103
  12.0283462  35.7341169  19.9671465  11.4557429  36.3531356  19.5141937
  12.6016255  36.2840531  20.5011387  15.2480722  36.0178319  21.0980048
  16.1811395  35.9523881  21.3012923  15.1603934  36.8534586  20.6394580
  17.8768738  35.3344190  18.0583995  17.7982370  35.0004053  18.9519753
  18.6978405  35.8265958  18.0575468  12.4130260  27.0701982  17.3087518
  13.3589365  26.9408190  17.3775936  12.0344505  26.3316644  17.7856946
  18.3852145  18.7357988  27.2714410  18.1876966  18.4273076  28.1557742
  18.9951850  19.4619627  27.4012340  12.2968953  31.1219728  38.7688175
  13.2171962  31.2998327  38.9628221  12.2618536  30.1775773  38.6167874
  10.5973177  24.9951958  17.2442403   9.6904633  24.6985071  17.3205117
  10.8749158  24.6981776  16.3776689   1.5151118  26.3158322  27.6941450
   1.1953902  25.4623630  27.4015824   0.9684546  26.5306900  28.4499417
   5.2931025  29.0320763  31.4110956   5.5117035  29.9637871  31.4298990
   5.7056799  28.6728737  32.1965760  12.2135243  19.5388848  23.3986644
  11.4035971  19.1935933  23.7741891  12.9019660  19.2296392  23.9874256
  14.1425791  18.6166895  25.0210941  14.6956830  19.0362348  25.6800964
  14.3795878  17.6902643  25.0633897  10.1658891  24.6053969  40.8013705
  10.0655618  25.5548325  40.7325796   9.9480433  24.2772207  39.9289775
   9.3671962  21.8538894  17.3854382  10.2291126  22.1793792  17.6450200
   9.5522306  21.0670389  16.8727448   1.3839378  29.9361233  29.6634571
   0.6902849  29.5215186  29.1504526   2.1312369  29.9781770  29.0667990
  17.5204598  20.7267420  24.5289605  16.9403268  21.3852224  24.1467658
  17.2540531  19.9044765  24.1177023  15.9708165  20.1272478  26.7310926
  16.4707943  20.2389012  25.9225245  16.6143773  19.8233531  27.3711734
  10.0290161  28.0351107  39.6178767   9.5457242  28.8351467  39.8242656
  10.1151100  28.0459052  38.6646211   3.2976120  29.8679487  27.5400586
   3.2746808  29.9667174  26.5882469   3.6076757  30.7144638  27.8617752
   5.9563498  31.9255642  31.6547200   6.9106752  31.8939584  31.5877132
   5.7576022  31.4646266  32.4697426   6.5462880  30.4956758  34.2217998
   7.3655769  30.9900837  34.2452835   6.8199688  29.5788726  34.1935566
  16.3029477  22.8867510  23.5845954  15.4155332  23.1717161  23.3666148
  16.7183466  22.7261274  22.7373231  19.6544013  22.9114031  27.3000293
  20.4304403  23.4010484  27.5724910  18.9292147  23.3372086  27.7572162
   4.3113727  37.4675262  28.6717398   4.1768195  36.7075662  28.1055396
   3.8945789  38.1916161  28.2046187  15.4472690  32.6512185  17.6793974
  16.1508540  32.8562188  18.2951629  14.7235339  33.2188947  17.9443057
  16.2770500  28.4022046  23.7996244  16.2205702  28.8590598  22.9603876
  16.8298843  27.6412731  23.6219087  20.0875306  24.1911778  24.6246363
  19.8312240  23.7908414  25.4554571  19.4628174  24.9055572  24.4996502
   7.4682853  38.3644579  28.8835841   7.3515237  39.3090011  28.7814531
   6.6475299  38.0618140  29.2721640  17.3559387  33.0894714  19.7292434
  18.1904991  32.6575913  19.5469908  17.1943730  32.9176728  20.6569328
  17.0105280  29.5926828  21.0948773  16.9554083  29.4271099  20.1537217
  16.3851335  30.3002861  21.2510963   1.7997795  24.8294892  34.9210195
   2.4456658  24.3193846  35.4097420   1.5914946  25.5663574  35.4953620
  14.3251187  31.8975739  40.4202336  15.1942346  32.0716392  40.0588971
  13.8457938  32.7170156  40.2978065  10.3201405  19.0934937  20.6734091
  10.3080075  20.0376777  20.8302362  11.2124827  18.9105082  20.3793553
   8.4937367  39.0172840  32.0991769   9.3964614  39.0496451  32.4158264
   8.2674737  38.0873291  32.1138105  10.2490969  37.7703827  28.7601848
   9.2986600  37.7705689  28.6466220  10.5523455  37.0236562  28.2437883
  14.1353524  15.6877713  24.9280028  13.3685920  15.1336200  25.0736711
  14.5464229  15.7599582  25.7894180   6.1395286  21.9762509  39.0185209
   7.0026747  21.6199314  39.2288534   5.5660696  21.6376404  39.7060614
  25.9843662  43.6064365  29.8247610  26.6222072  43.4871113  29.1210950
  25.8664505  44.5545209  29.8835563  22.7933369  43.5591794  29.7609135
  22.4551880  43.4432858  28.8729670  23.6623137  43.1582959  29.7410141
  18.6520184  45.4127270  25.7506026  18.0885050  45.3217207  24.9822314
  18.5372579  44.5927174  26.2308519  23.2753152  44.7126645  35.7195341
  23.2641793  44.3179444  34.8475844  23.4373791  43.9792718  36.3129112
  16.1984616  46.9078462  28.5890247  16.9905908  46.5669286  28.1736546
  16.4381267  47.0173437  29.5092400  24.2319743  49.0798238  21.0620491
  23.5807723  49.6652318  20.6754505  25.0264106  49.6104433  21.1215528
  18.1575370  46.1687375  21.4607625  18.9306246  45.6216362  21.3220501
  18.5100769  47.0331624  21.6722087  19.9960413  47.4963757  34.6674525
  19.7050279  48.4009388  34.5521191  20.6317397  47.5380285  35.3818594
  20.9216620  44.8740606  31.2575884  21.5180192  44.6496628  30.5432847
  20.9791591  44.1325351  31.8601332  20.4941648  42.3280041  19.0926075
  20.7467169  41.8061562  18.3309538  19.5566207  42.1646186  19.1952759
  25.5384931  41.3315819  26.9000818  26.3248020  40.9135242  26.5491235
  25.8023635  42.2361911  27.0682467  25.7095008  46.7688670  21.5989475
  25.0740841  46.8423296  22.3110380  25.3792415  47.3582268  20.9208555
  30.9393358  41.2691052  27.8033797  31.6718530  40.6990269  28.0371626
  30.1832714  40.8812653  28.2440303  20.2137937  44.2308147  21.2950450
  20.0974195  43.5553050  21.9631534  20.3240197  43.7440521  20.4782603
  22.5569478  43.6918294  24.9997139  22.1927685  43.1648915  25.7110061
  23.4136594  43.3016763  24.8263625  22.1974965  38.7208194  19.9958488
  22.3649367  39.5888430  20.3628959  22.0072134  38.8835475  19.0719777
  24.9550298  47.1825173  31.6624318  24.6551021  48.0850211  31.5540126
  24.6101357  46.9157356  32.5145471  18.4062779  43.6338969  27.6961023
  17.4813276  43.5015184  27.9038714  18.6547193  44.4133189  28.1930965
  28.3547442  39.7007713  29.3421756  27.4464319  39.6323121  29.0480517
  28.3035038  40.1779658  30.1703581  22.1764186  41.1765851  20.9805155
  22.0563811  41.6222902  21.8190635  21.4816774  41.5251169  20.4218693
  15.7671590  43.2772243  28.5304812  15.8963972  43.5306722  29.4444224
  15.0869042  43.8699951  28.2109467  19.9371078  53.9469493  24.6295286
  19.8595107  54.8977318  24.7083767  19.3332721  53.6015365  25.2870212
  22.4288308  41.1197358  37.2856653  21.6521642  41.6791278  37.2759518
  23.0678871  41.6054141  37.8071523  27.8749252  41.6487324  21.8085489
  28.7867108  41.8814711  21.6333186  27.3658899  42.2324369  21.2460567
  20.6834680  43.9282812  36.8474620  21.4249364  44.4667856  36.5709444
  19.9771665  44.5549100  37.0046172  26.1590019  46.0711952  35.4446781
  26.5673376  45.6294363  34.7001414  25.4367281  45.4964580  35.6980974
  22.5121090  41.0084559  32.8180338  23.3582285  41.4323972  32.9614987
  22.4519727  40.3518183  33.5118901  26.4818834  46.6313143  29.1999070
  25.8527697  46.7958857  28.4975138  26.0944496  47.0454752  29.9710034
  30.3608066  47.5667581  26.5543434  29.6759104  47.9466482  26.0040467
  30.4451915  48.1762907  27.2875382  25.6620535  38.6688927  34.4761512
  25.4181467  39.4230988  33.9395788  25.9380465  39.0474275  35.3108759
  27.6158998  45.2127540  33.1538778  27.8275893  45.8559300  32.4773159
  27.5688746  44.3789856  32.6860708  25.2185227  37.8245360  30.0575350
  24.3569706  38.1226614  30.3492087  25.2447661  38.0415759  29.1256382
  22.0346796  46.3687551  26.4649155  22.4985142  46.6475254  25.6753778
  21.7703594  45.4670995  26.2822246  18.9270877  45.9159032  29.4028919
  19.4972234  46.3446301  28.7646403  19.5178989  45.6341617  30.1013104
  20.9715682  42.4910703  23.2738721  21.6739725  42.9431747  23.7412647
  20.6396311  41.8494522  23.9018614  19.4196044  41.0822460  37.6489930
  18.7894704  41.7638741  37.8825327  19.3132131  40.9705541  36.7043068
  14.7141016  40.7494256  28.5755854  13.9240070  41.0051784  28.0995965
  15.2052263  41.5642594  28.6807895  28.7304826  48.0899495  31.3261135
  29.5522269  47.6879682  31.0443817  28.7267228  47.9867729  32.2777251
  16.6655761  41.1138835  25.5339331  15.8686925  41.2257529  26.0522826
  16.4381354  41.4525487  24.6680221  22.4961429  47.6383538  33.4821845
  22.5605862  48.1003946  34.3180017  21.7872353  47.0080903  33.6104155
  12.9978719  41.0024746  31.0070845  13.2486757  41.8871756  31.2728421
  13.5338267  40.8229348  30.2345937  36.8210819  44.4338244  27.6746106
  36.0674527  43.8645642  27.5190111  36.9558360  44.4000908  28.6216741
  22.2109447  49.3051646  23.3500826  22.0755121  50.1503182  23.7785674
  22.7519259  49.5070924  22.5866760  18.6976786  35.3843226  40.0115181
  18.3043732  34.8309424  40.6862825  19.5142927  35.6953804  40.4021698
  15.6638844  46.8227084  23.9228751  16.1763365  47.6170334  24.0734315
  16.3161557  46.1253374  23.8562352  17.4733729  49.9392840  26.0051504
  17.6500357  50.8610805  25.8172488  18.2690562  49.6251259  26.4345884
  21.6144747  36.8001105  37.6035438  22.3554461  37.4008258  37.5239900
  21.8462670  36.0578743  37.0453480  16.7586085  41.9857472  35.8813667
  16.6439600  41.0842729  36.1820766  15.9030603  42.2321169  35.5298484
  23.8377923  49.9275212  37.4801168  23.3941777  49.1411591  37.1622072
  24.4995137  50.1154363  36.8145059  18.5965044  51.4571014  32.0061846
  19.1472469  51.3288077  31.2338840  17.7576520  51.7565903  31.6556739
  25.9359161  50.2078012  35.5082569  25.9177636  51.0286893  35.0162838
  26.8579081  50.0832088  35.7332710  22.3932215  47.7222142  36.3506077
  22.9260552  46.9610430  36.1205385  21.8646296  47.4295794  37.0930232
  13.6287761  45.1515738  24.6988321  14.4662983  45.5612747  24.4822029
  13.8066029  44.2115180  24.6688515  25.5252193  42.8190819  20.3872154
  25.0098816  43.5895424  20.6260542  25.2529501  42.1455955  21.0105216
  23.1099304  37.6640520  25.4457393  22.2540900  37.2747370  25.2663031
  23.5226256  37.7432480  24.5857178  20.8841337  35.2825593  28.8515134
  21.7494333  35.0868401  28.4921024  20.9518845  35.0535944  29.7784491
  30.4986467  45.5723174  22.3225328  29.7215910  45.2334333  21.8780490
  31.1777948  45.5775797  21.6480293  25.3138496  40.6917911  22.2131935
  25.0088632  41.0064060  23.0642079  26.2668938  40.7699331  22.2559268
  23.7584928  46.8508134  23.8624889  23.2306290  46.1160894  23.5498127
  23.2572431  47.6282811  23.6164858  28.7377774  45.0457155  28.9791936
  28.0801448  45.7356416  29.0672064  29.5418173  45.4353587  29.3225922
  18.4903656  37.5127801  26.2231501  19.0647408  37.2902982  25.4904694
  19.0774638  37.5816495  26.9760102  27.5483233  43.4001527  27.0295878
  28.0615115  44.0331519  27.5317587  28.1984457  42.8002723  26.6639238
  18.8173243  39.5432262  20.2427386  17.9810555  39.8806948  20.5636661
  18.6778012  39.4081241  19.3054523  21.9037528  44.6688345  16.8659862
  20.9964590  44.4377598  17.0651011  22.4008560  43.8725964  17.0533844
  24.8105607  53.3785852  19.7856549  24.1367306  53.6817548  20.3941506
  25.1971429  54.1814932  19.4362006  24.0264064  40.8750983  29.2754218
  23.1086625  41.0965930  29.1175906  24.4424207  40.9497293  28.4165925
  24.8099111  42.2742399  24.4056898  25.5570930  42.7863796  24.0964020
  25.0790701  41.9526451  25.2661292  23.0825762  44.7700939  21.3883853
  22.1736981  44.4859972  21.4856322  23.1120845  45.1900018  20.5287159
  28.3145029  48.3807529  25.1575020  27.8607356  47.5398439  25.2140211
  27.6838996  49.0168927  25.4949800  27.2577949  39.3099515  26.3875688
  26.5200705  38.7976901  26.7185930  27.5104722  38.8699897  25.5758964
  26.7577968  50.2184026  26.0924838  27.0500943  50.7789083  25.3737204
  27.2676589  50.5112587  26.8477997  13.6513932  42.4906454  25.3699055
  13.4538332  41.8975814  24.6450121  13.0960596  42.1858664  26.0874994
  21.6310656  42.3829560  27.4893648  21.6859265  41.4303396  27.4136125
  20.8201858  42.5388999  27.9734946  22.7801849  46.3109683  18.7271931
  22.3421279  45.5945542  18.2677569  23.5212290  46.5385798  18.1657023
  19.5703016  41.0006620  25.2484027  18.7570881  41.3000790  25.6549219
  20.0662010  40.6062309  25.9658509  21.7211593  50.9964377  27.1818291
  21.6787772  51.2225223  26.2526824  22.6374292  50.7627751  27.3304093
  25.1677227  41.4648444  34.0798921  25.5226615  41.6919917  34.9393386
  25.8149358  41.7966821  33.4576176  30.8974964  44.5866880  24.7848250
  30.7592863  44.7768476  23.8569439  30.5411183  45.3486263  25.2416301
  19.0617090  38.5724975  30.8645262  19.7016470  38.4313734  30.1668225
  18.2294621  38.2859489  30.4883864  30.9244344  46.6543407  29.7959521
  31.3580850  46.5618696  30.6442575  31.6375925  46.6300908  29.1579537
  19.8377394  47.8727406  26.9780254  20.6317993  47.3777726  26.7762829
  19.1269087  47.3445269  26.6147960  24.6572239  50.2545501  31.3292622
  24.7109261  50.8236438  32.0970338  23.7887020  50.4247386  30.9646659
  16.1460158  42.0170487  23.0540007  15.2157746  41.9554943  23.2709969
  16.2417630  41.4946440  22.2576648  16.0645707  38.5425300  25.6418249
  16.3252524  39.4570634  25.5327409  16.8862879  38.0749743  25.7914861
  17.5370632  39.9563057  32.8117073  18.2093686  39.7480420  32.1629722
  16.7100419  39.7585143  32.3722305  31.7859893  46.6967108  32.3292407
  31.9795783  47.6012918  32.5751682  31.6860512  46.2374527  33.1630992
  23.4396204  36.5824998  34.8282734  22.7924119  37.2814948  34.7347210
  24.2097220  37.0161142  35.1958982  26.8475002  46.8473851  37.9033287
  26.6960508  46.6184402  36.9863371  26.8379682  47.8044452  37.9164632
  23.6160338  44.4205763  32.8879554  24.5452398  44.5716923  32.7148521
  23.1951368  44.5089784  32.0328200  22.4148670  48.4456428  30.6578091
  22.2759756  48.0775212  31.5304029  21.6263266  48.9604067  30.4862049
  23.0096822  53.5465524  22.0003628  23.1848578  53.0753567  22.8149251
  22.3229610  54.1731290  22.2284889  23.9653885  47.8238030  28.0466929
  23.6303718  47.7838800  28.9424579  23.4657831  47.1582746  27.5737339
  17.9398129  43.2305660  33.5719510  17.8017927  42.4985899  34.1731049
  18.8503053  43.1414561  33.2903698  26.9013077  45.1694065  18.3203989
  26.2842248  44.4440893  18.2237041  26.4329565  45.9303425  17.9771063
  20.5680430  42.9425620  33.0603190  21.2780049  42.3018812  33.0189808
  20.5249738  43.1938515  33.9829371  28.5567209  49.8792973  35.9809769
  28.4979755  49.1952193  35.3140352  28.9586727  50.6211963  35.5290395
  19.2809364  39.9290838  34.8798829  18.7446721  39.4781576  35.5320426
  18.6926072  40.0636746  34.1369294  18.6911623  39.3879489  17.4425293
  17.8141089  39.2668290  17.0787540  19.1669376  38.5965567  17.1904182
  28.5584616  47.8432557  34.2123749  27.6711395  47.5058479  34.3350148
  29.1283167  47.1115588  34.4492514  10.2113763  44.1756649  27.5366800
  10.8984803  43.8618379  26.9487815  10.0561892  45.0798013  27.2634052
  15.0148485  39.0646845  31.9651824  14.9306674  38.4572515  31.2302234
  14.1931192  39.5555864  31.9661320  22.0885769  52.5034009  31.1784992
  22.0155941  53.3088981  31.6904297  21.6463162  52.7025975  30.3533013
  21.8775549  51.7405779  24.6887814  21.0943071  52.2827460  24.7826038
  22.5768294  52.2579759  25.0882055  25.1872199  37.5500409  27.3322019
  25.6840899  36.7970371  27.0123089  24.4159181  37.5864726  26.7665228
  33.0401956  43.2540774  28.9740310  33.0291833  44.1365490  28.6034244
  32.1719336  42.9012325  28.7794847  24.5484453  52.4020843  33.3343151
  25.2612425  53.0368308  33.2619052  24.0574482  52.4984709  32.5183152
  26.2701980  46.3072096  24.9060442  25.3358259  46.4273559  24.7365147
  26.4478648  45.4044563  24.6420452  21.7707168  39.6917792  27.0593704
  21.4004955  39.1388832  27.7474609  22.2666260  39.0875925  26.5068704
  29.6574531  42.1489415  25.4410476  30.1234983  42.9817407  25.3670779
  30.1082032  41.6834397  26.1455735  19.5996366  50.1515287  34.1548721
  20.3005826  50.7851770  34.3078116  19.1291481  50.4930018  33.3944361
  27.7250762  48.4933237  22.4396628  28.0010606  48.3789831  23.3490503
  26.8555261  48.0950721  22.4008802  27.3997652  42.7059894  31.9801272
  26.7469103  42.9535802  31.3253725  27.7778032  41.8924032  31.6463749
  24.3604826  52.7419587  26.0829442  24.5427221  51.9241243  26.5457194
  25.1837812  52.9587280  25.6454332  24.6946992  51.6687773  23.3444491
  25.2234758  51.1580227  22.7314653  24.9575211  51.3530303  24.2090024
  23.4485225  43.4479705  38.4667309  22.7725862  43.3473835  39.1369684
  24.2712859  43.2918919  38.9303306  15.1964084  49.6851642  31.0879824
  15.7817521  48.9395330  31.2207728  14.9988923  49.9955599  31.9716488
  18.0502740  52.7202889  26.1042267  17.3813115  53.2049017  25.6206307
  17.9115609  52.9672110  27.0185645   9.7881739  42.2557242  29.8084267
   9.8265839  41.7220833  30.6021385   9.2822032  41.7292448  29.1895244
  22.1908008  54.7546633  32.7024925  22.7426316  54.9178254  33.4674010
  22.5314202  55.3451071  32.0304950  17.1672502  37.1021783  33.3046810
  17.2313828  37.9636614  32.8924207  17.1039622  36.4895784  32.5719168
  16.6424774  39.1744915  36.9519844  17.2696813  38.7921992  37.5657368
  15.7852693  38.9559117  37.3175536  27.0418883  49.5807890  38.5573579
  27.5858787  50.1937849  38.0628534  26.4605727  50.1387469  39.0740592
  13.4190317  40.9821344  22.8838199  13.7143758  40.0732023  22.8305252
  12.5178353  40.9609084  22.5619201  25.3276396  52.7028608  29.6888607
  25.2027535  51.9018348  29.1799553  25.9855487  53.1974802  29.2002577
  16.9484564  39.0577341  28.8665747  16.2271150  39.6713309  28.7273221
  17.7377820  39.5935106  28.7882393  27.3911304  50.5037628  31.3168157
  26.4441639  50.3842980  31.2446484  27.7394077  49.6160126  31.3994419
  19.7510877  36.3931767  35.1406399  20.2745279  36.6394064  35.9032708
  19.5323211  37.2251802  34.7209536  15.1478158  38.6635442  23.0077524
  14.8190865  37.7832821  22.8252630  15.5017529  38.6083111  23.8953913
  24.3957737  50.2990345  27.5172509  24.2482700  49.3707052  27.6980079
  25.2211231  50.3210435  27.0329585  18.2619982  38.9508412  23.3753002
  18.6016054  39.4794333  22.6531610  18.7092102  39.2888818  24.1511568
  27.9991859  51.1218903  28.6037382  28.9238407  50.9161765  28.4661833
  27.8307162  50.8735305  29.5126724  20.9563422  37.3345462  32.8256070
  20.6160243  36.5353276  33.2276749  20.2502429  37.6347173  32.2532903
  20.2488129  37.4483033  21.5746294  20.9696491  37.8264286  21.0710011
  19.6253433  38.1671910  21.6781272  24.3919252  38.1528182  22.5104627
  24.6082866  39.0352820  22.2093455  23.9113319  37.7614396  21.7810269
  19.1318473  41.1113896  29.0875371  18.9863054  41.4254199  29.9799653
  18.6543677  41.7298796  28.5346270  20.9914856  38.1016444  29.1356261
  20.9776425  37.2057537  28.7988559  21.7087284  38.1087107  29.7694547
  22.8440987  38.5353784  31.1809388  22.5858764  39.4570854  31.1793719
  22.3126027  38.1384218  31.8709852  27.7887175  51.6404571  23.9599474
  27.9624053  51.0750993  23.2073326  28.2816067  52.4405466  23.7778964
  13.6064135  43.6519240  32.0263032  13.0617603  44.4279048  32.1583307
  14.4843485  43.9990044  31.8682154  20.3951752  36.9830824  24.4043831
  20.5167663  36.0547470  24.6034718  20.1053794  36.9969510  23.4922146
  33.6426566  44.4040994  25.5789773  34.0857712  43.6548319  25.1808897
  32.7653077  44.3951130  25.1963505  28.7762348  50.9571335  21.0596372
  29.4713252  51.5778028  21.2783687  29.1185498  50.1066686  21.3348750
  14.3930157  42.7789136  34.9193189  13.6511893  42.9271772  35.5057820
  14.0722901  43.0397402  34.0559939  30.6753771  48.4071041  22.5883703
  31.2005095  48.7458314  21.8633023  30.5876123  47.4718056  22.4046837
  22.3373820  52.3205114  34.7173579  22.6460946  52.0754261  35.5896279
  23.1349302  52.5251753  34.2292449  22.3594432  54.4743024  26.9478956
  21.9199422  53.9819403  27.6411813  23.1102549  53.9315992  26.7071031
  14.8386771  50.6654565  26.9503584  15.6644791  50.3658337  26.5702227
  14.4880823  49.8962187  27.3993373  19.8068304  50.0181033  29.0201257
  19.1848313  49.3551738  28.7203485  20.4773171  50.0442165  28.3374905
  13.0395376  48.5840891  27.9092517  12.2027284  48.1563066  27.7276519
  13.0119021  48.7773335  28.8463309  19.8792831  38.4962821  38.6133764
  19.9280987  39.3724944  38.2311533  20.4215345  37.9540214  38.0405407
  30.3647677  49.0403944  37.8934901  29.5743221  49.0228083  37.3539400
  30.1281032  49.5792238  38.6483937  30.4845552  45.8896411  35.2067629
  30.5343557  45.7246418  36.1483152  30.3759475  45.0223670  34.8165510
  19.3681811  48.5684956  22.4959718  19.5169931  49.2520421  21.8426391
  20.1748254  48.5490047  23.0109174  27.7749314  41.8727339  36.5226936
  28.6759177  41.7333804  36.2310934  27.8497289  42.0381794  37.4625113
  22.1092120  39.2494194  35.3680122  21.2395429  39.5427760  35.0962711
  22.3451600  39.8334639  36.0887386  31.9863749  48.3093352  35.4509651
  31.6948557  48.6723333  36.2873112  31.3735880  47.5960361  35.2722983
  33.1859431  45.8746232  27.9712221  34.0206323  46.3136036  28.1349781
  33.3218560  45.3984885  27.1520467  30.2350937  43.4325967  33.9189709
  30.7105059  43.6253613  33.1108560  29.3116502  43.4885153  33.6733092
  17.1234444  44.5950134  23.5020787  16.8780486  43.6912464  23.7000997
  17.2930358  44.5967285  22.5600265  16.3930091  40.3278492  21.0006948
  15.6999336  40.4022847  20.3446984  16.1481843  39.5638835  21.5228465
  22.8677216  51.0633087  19.9671465  22.2951183  51.6823274  19.5141937
  23.4410010  51.6132449  20.5011387  26.0874476  51.3470237  21.0980048
  27.0205149  51.2815799  21.3012923  25.9997689  52.1826504  20.6394580
  28.7162493  50.6636107  18.0583995  28.6376124  50.3295971  18.9519753
  29.5372159  51.1557875  18.0575468  31.4140684  43.5297847  31.2660314
  31.3817004  42.5913847  31.4519998  32.0241308  43.6081883  30.5326139
  23.2524015  42.3993900  17.3087518  24.1983119  42.2700108  17.3775936
  22.8738260  41.6608562  17.7856946  37.2317234  44.5913854  30.4066351
  37.9620622  44.3299142  30.9674054  36.6224179  43.8542575  30.4468419
  35.3132531  42.7321716  31.0040802  34.5865694  42.5977681  30.3957293
  34.8979818  43.0398545  31.8097520  23.1362707  46.4511646  38.7688175
  24.0565717  46.6290245  38.9628221  23.1012290  45.5067691  38.6167874
  21.4366932  40.3243876  17.2442403  20.5298387  40.0276989  17.3205117
  21.7142913  40.0273694  16.3776689  12.3544872  41.6450239  27.6941450
  12.0347657  40.7915548  27.4015824  11.8078300  41.8598818  28.4499417
  16.1324780  44.3612680  31.4110956  16.3510790  45.2929788  31.4298990
  16.5450554  44.0020655  32.1965760  23.0528998  34.8680766  23.3986644
  22.2429726  34.5227851  23.7741891  23.7413415  34.5588309  23.9874256
  21.0052645  39.9345886  40.8013705  20.9049372  40.8840243  40.7325796
  20.7874187  39.6064125  39.9289775  20.2065717  37.1830811  17.3854382
  21.0684881  37.5085710  17.6450200  20.3916061  36.3962307  16.8727448
  12.2233132  45.2653151  29.6634571  11.5296604  44.8507104  29.1504526
  12.9706123  45.3073687  29.0667990  28.3598353  36.0559338  24.5289605
  27.7797022  36.7144142  24.1467658  28.0934286  35.2336682  24.1177023
  20.8683915  43.3643025  39.6178767  20.3850997  44.1643385  39.8242656
  20.9544854  43.3750970  38.6646211  14.1369875  45.1971405  27.5400586
  14.1140563  45.2959092  26.5882469  14.4470511  46.0436556  27.8617752
  16.7957253  47.2547560  31.6547200  17.7500506  47.2231502  31.5877132
  16.5969776  46.7938183  32.4697426  17.3856635  45.8248676  34.2217998
  18.2049524  46.3192754  34.2452835  17.6593443  44.9080644  34.1935566
  27.1423231  38.2159428  23.5845954  26.2549086  38.5009079  23.3666148
  27.5577220  38.0553191  22.7373231  30.4937767  38.2405949  27.3000293
  31.2698157  38.7302402  27.5724910  29.7685901  38.6664003  27.7572162
  32.9310326  38.9533568  28.3574234  33.5254817  38.7129304  27.6467542
  33.0036909  38.2340699  28.9847770  26.2866444  47.9804103  17.6793974
  26.9902295  48.1854105  18.2951629  25.5629093  48.5480865  17.9443057
  27.1164255  43.7313964  23.7996244  27.0599456  44.1882515  22.9603876
  27.6692597  42.9704649  23.6219087  30.9269061  39.5203696  24.6246363
  30.6705995  39.1200332  25.4554571  30.3021929  40.2347490  24.4996502
  35.2381399  42.2599769  27.1317655  34.6780956  42.3292958  27.9049217
  34.6324902  42.0840754  26.4117151  28.1953142  48.4186632  19.7292434
  29.0298746  47.9867830  19.5469908  28.0337485  48.2468646  20.6569328
  27.8499034  44.9218745  21.0948773  27.7947838  44.7563017  20.1537217
  27.2245089  45.6294778  21.2510963  12.6391549  40.1586810  34.9210195
  13.2850413  39.6485764  35.4097420  12.4308700  40.8955491  35.4953620
  25.1644941  47.2267657  40.4202336  26.0336101  47.4008309  40.0588971
  24.6851693  48.0462074  40.2978065  21.1595160  34.4226854  20.6734091
  21.1473829  35.3668694  20.8302362  22.0518581  34.2397000  20.3793553
  19.3331121  54.3464758  32.0991769  20.2358368  54.3788368  32.4158264
  19.1068492  53.4165209  32.1138105  21.0884723  53.0995745  28.7601848
  20.1380354  53.0997606  28.6466220  21.3917210  52.3528479  28.2437883
  16.9789040  37.3054427  39.0185209  17.8420502  36.9491232  39.2288534
  16.4054451  36.9668322  39.7060614  36.8237417  58.9356283  29.8247610
  37.4615827  58.8163030  29.1210950  36.7058260  59.8837127  29.8835563
  33.6327123  58.8883711  29.7609135  33.2945635  58.7724776  28.8729670
  34.5016891  58.4874876  29.7410141  34.1146906  60.0418563  35.7195341
  34.1035547  59.6471361  34.8475844  34.2767546  59.3084636  36.3129112
  31.3335403  57.6571959  19.0926075  31.5860923  57.1353480  18.3309538
  30.3959962  57.4938104  19.1952759  36.3778685  56.6607737  26.9000818
  37.1641775  56.2427160  26.5491235  36.6417390  57.5653829  27.0682467
  41.7787113  56.5982970  27.8033797  42.5112285  56.0282187  28.0371626
  41.0226468  56.2104571  28.2440303  33.3963232  59.0210212  24.9997139
  33.0321440  58.4940833  25.7110061  34.2530348  58.6308681  24.8263625
  39.3012533  50.3104544  32.2628406  38.9695858  51.1799955  32.0389621
  38.7058146  49.9940828  32.9422436  33.0368719  54.0500111  19.9958488
  33.2043122  54.9180348  20.3628959  32.8465888  54.2127393  19.0719777
  39.1941196  55.0299630  29.3421756  38.2858074  54.9615039  29.0480517
  39.1428792  55.5071575  30.1703581  33.0157940  56.5057769  20.9805155
  32.8957565  56.9514820  21.8190635  32.3210529  56.8543087  20.4218693
  33.2682062  56.4489276  37.2856653  32.4915396  57.0083196  37.2759518
  33.9072625  56.9346059  37.8071523  41.0602843  53.2316069  31.1199630
  40.4177223  53.5248602  30.4739424  40.5557771  53.1168989  31.9252826
  38.7143006  56.9779242  21.8085489  39.6260862  57.2106629  21.6333186
  38.2052653  57.5616286  21.2460567  33.3514844  56.3376477  32.8180338
  34.1976039  56.7615890  32.9614987  33.2913482  55.6810101  33.5118901
  36.5014289  53.9980845  34.4761512  36.2575221  54.7522906  33.9395788
  36.7774220  54.3766193  35.3108759  36.0578981  53.1537278  30.0575350
  35.1963460  53.4518532  30.3492087  36.0841416  53.3707677  29.1256382
  31.8109437  57.8202621  23.2738721  32.5133480  58.2723665  23.7412647
  31.4790065  57.1786440  23.9018614  30.2589798  56.4114378  37.6489930
  29.6288459  57.0930658  37.8825327  30.1525886  56.2997459  36.7043068
  25.5534771  56.0786174  28.5755854  24.7633825  56.3343702  28.0995965
  26.0446018  56.8934511  28.6807895  27.5049516  56.4430753  25.5339331
  26.7080679  56.5549447  26.0522826  27.2775108  56.7817405  24.6680221
  29.5370541  50.7135143  40.0115181  29.1437486  50.1601342  40.6862825
  30.3536681  51.0245722  40.4021698  32.4538502  52.1293022  37.6035438
  33.1948215  52.7300176  37.5239900  32.6856425  51.3870660  37.0453480
  36.3995665  48.1574125  31.8799719  36.0559934  49.0475767  31.8038830
  36.7674627  47.9675783  31.0169304  36.3645947  58.1482737  20.3872154
  35.8492571  58.9187341  20.6260542  36.0923256  57.4747873  21.0105216
  33.9493059  52.9932437  25.4457393  33.0934655  52.6039288  25.2663031
  34.3620010  53.0724398  24.5857178  35.4792205  50.5278781  29.8448952
  34.9757001  50.4908916  29.0316758  35.7722812  51.4371523  29.9045609
  31.7235091  50.6117510  28.8515134  32.5888088  50.4160319  28.4921024
  31.7912600  50.3827862  29.7784491  36.1532251  56.0209829  22.2131935
  35.8482386  56.3355978  23.0642079  37.1062693  56.0991249  22.2559268
  29.3297410  52.8419718  26.2231501  29.9041162  52.6194900  25.4904694
  29.9168393  52.9108413  26.9760102  38.3876987  58.7293445  27.0295878
  38.9008869  59.3623437  27.5317587  39.0378211  58.1294641  26.6639238
  29.6566997  54.8724179  20.2427386  28.8204309  55.2098866  20.5636661
  29.5171767  54.7373159  19.3054523  31.6320078  49.7160967  24.9506570
  30.9784490  49.4009984  24.3263185  31.5900552  49.0936708  25.6766393
  34.8657818  56.2042901  29.2754218  33.9480380  56.4257848  29.1175906
  35.2817962  56.2789211  28.4165925  35.6492866  57.6034316  24.4056898
  36.3964685  58.1155714  24.0964020  35.9184455  57.2818369  25.2661292
  38.0971703  54.6391433  26.3875688  37.3594460  54.1268819  26.7185930
  38.3498477  54.1991814  25.5758964  38.1983330  47.4167685  26.9817457
  38.5042207  46.5565048  26.6943372  38.9235935  48.0085305  26.7816451
  32.4704410  57.7121478  27.4893648  32.5253020  56.7595314  27.4136125
  31.6595612  57.8680917  27.9734946  30.4096770  56.3298537  25.2484027
  29.5964636  56.6292708  25.6549219  30.9055764  55.9354226  25.9658509
  36.0070982  56.7940362  34.0798921  36.3620369  57.0211835  34.9393386
  36.6543113  57.1258739  33.4576176  29.9010845  53.9016893  30.8645262
  30.5410224  53.7605652  30.1668225  29.0688375  53.6151406  30.4883864
  26.9039461  53.8717218  25.6418249  27.1646279  54.7862551  25.5327409
  27.7256634  53.4041661  25.7914861  28.3764387  55.2854975  32.8117073
  29.0487440  55.0772337  32.1629722  27.5494173  55.0877061  32.3722305
  34.2789959  51.9116916  34.8282734  33.6317874  52.6106866  34.7347210
  35.0490974  52.3453060  35.1958982  34.4554093  59.7497681  32.8879554
  35.3846153  59.9008841  32.7148521  34.0345123  59.8381702  32.0328200
  31.4074185  58.2717537  33.0603190  32.1173803  57.6310730  33.0189808
  31.3643493  58.5230432  33.9829371  30.1203118  55.2582755  34.8798829
  29.5840475  54.8073494  35.5320426  29.5319827  55.3928664  34.1369294
  29.5305377  54.7171407  17.4425293  28.6534844  54.5960207  17.0787540
  30.0063131  53.9257485  17.1904182  25.8542240  54.3938763  31.9651824
  25.7700428  53.7864433  31.2302234  25.0324946  54.8847781  31.9661320
  36.0265954  52.8792327  27.3322019  36.5234653  52.1262289  27.0123089
  35.2552935  52.9156643  26.7665228  32.6100922  55.0209710  27.0593704
  32.2398710  54.4680750  27.7474609  33.1060015  54.4167843  26.5068704
  40.4968286  57.4781333  25.4410476  40.9628738  58.3109325  25.3670779
  40.9475786  57.0126315  26.1455735  38.4684948  49.8461920  29.4801378
  37.5548028  50.0766147  29.6483585  38.8978050  49.9300364  30.3315410
  38.2391407  58.0351812  31.9801272  37.5862857  58.2827719  31.3253725
  38.6171787  57.2215950  31.6463749  34.2878980  58.7771623  38.4667309
  33.6119617  58.6765752  39.1369684  35.1106614  58.6210837  38.9303306
  28.0066256  52.4313700  33.3046810  28.0707582  53.2928531  32.8924207
  27.9433376  51.8187702  32.5719168  27.4818529  54.5036833  36.9519844
  28.1090567  54.1213910  37.5657368  26.6246447  54.2851035  37.3175536
  24.2584071  56.3113262  22.8838199  24.5537512  55.4023940  22.8305252
  23.3572107  56.2901001  22.5619201  27.7878318  54.3869259  28.8665747
  27.0664904  55.0005226  28.7273221  28.5771574  54.9227023  28.7882393
  30.5904632  51.7223685  35.1406399  31.1139034  51.9685982  35.9032708
  30.3716965  52.5543720  34.7209536  25.9871913  53.9927360  23.0077524
  25.6584619  53.1124739  22.8252630  26.3411284  53.9375028  23.8953913
  29.1013736  54.2800329  23.3753002  29.4409809  54.8086251  22.6531610
  29.5485856  54.6180736  24.1511568  31.7957177  52.6637380  32.8256070
  31.4553997  51.8645193  33.2276749  31.0896183  52.9639091  32.2532903
  32.4473649  49.7486693  31.2783393  33.2699718  49.2747171  31.1562283
  32.6911712  50.5277176  31.7782079  31.0881883  52.7774951  21.5746294
  31.8090246  53.1556204  21.0710011  30.4647187  53.4963828  21.6781272
  35.2313006  53.4820100  22.5104627  35.4476620  54.3644738  22.2093455
  34.7507073  53.0906313  21.7810269  29.9712227  56.4405813  29.0875371
  29.8256808  56.7546116  29.9799653  29.4937431  57.0590714  28.5346270
  31.8308610  53.4308361  29.1356261  31.8170179  52.5349454  28.7988559
  32.5481038  53.4379025  29.7694547  33.6834741  53.8645701  31.1809388
  33.4252519  54.7862772  31.1793719  33.1519781  53.4676136  31.8709852
  31.2345506  52.3122741  24.4043831  31.3561417  51.3839388  24.6034718
  30.9447549  52.3261427  23.4922146  34.1036697  49.9977652  27.5410551
  34.1258393  50.0616985  26.5862530  34.5204756  49.1582161  27.7351057
  30.7186586  53.8254739  38.6133764  30.7674741  54.7016862  38.2311533
  31.2609100  53.2832132  38.0405407  38.6143069  57.2019256  36.5226936
  39.5152932  57.0625721  36.2310934  38.6891043  57.3673711  37.4625113
  32.9485874  54.5786111  35.3680122  32.0789184  54.8719677  35.0962711
  33.1845355  55.1626556  36.0887386  35.6524908  50.7965728  32.8845543
  36.1706852  51.5326755  32.5592031  35.2980041  51.1029721  33.7192302
  27.2323846  55.6570409  21.0006948  26.5393091  55.7314764  20.3446984
  26.9875598  54.8930753  21.5228465  35.9037502  47.2166011  28.4046439
  36.1839256  46.5489200  29.0306866  36.6888109  47.4095106  27.8921103
  39.7746361  55.6383645  32.1518014  40.7263783  55.7381742  32.1730238
  39.6049811  54.8461913  32.6616099  37.7960740  52.7239228  32.3377415
  37.2010672  53.0044241  31.6423904  37.5110437  53.2133129  33.1094156
  34.0917769  57.7285817  17.3087518  35.0376874  57.5992025  17.3775936
  33.7132014  56.9900479  17.7856946  42.4028927  55.6500808  31.3118597
  41.8867975  54.8659264  31.1248526  43.2868875  55.3219524  31.4765117
  40.0639654  49.3941823  27.2714410  39.8664475  49.0856912  28.1557742
  40.6739359  50.1203462  27.4012340  32.2760686  55.6535794  17.2442403
  31.3692142  55.3568906  17.3205117  32.5536667  55.3565612  16.3776689
  33.8922752  50.1972683  23.3986644  33.0823480  49.8519768  23.7741891
  34.5807169  49.8880227  23.9874256  35.8213300  49.2750730  25.0210941
  36.3744339  49.6946184  25.6800964  36.0583387  48.3486478  25.0633897
  31.8446400  55.2637804  40.8013705  31.7443127  56.2132161  40.7325796
  31.6267942  54.9356043  39.9289775  31.0459471  52.5122729  17.3854382
  31.9078635  52.8377627  17.6450200  31.2309815  51.7254225  16.8727448
  39.1992107  51.3851255  24.5289605  38.6190777  52.0436059  24.1467658
  38.9328040  50.5628600  24.1177023  37.6495674  50.7856313  26.7310926
  38.1495452  50.8972848  25.9225245  38.2931282  50.4817366  27.3711734
  37.9816985  53.5451346  23.5845954  37.0942841  53.8300996  23.3666148
  38.3970975  53.3845109  22.7373231  41.3331522  53.5697867  27.3000293
  42.1091912  54.0594319  27.5724910  40.6079656  53.9955921  27.7572162
  43.7704080  54.2825486  28.3574234  44.3648571  54.0421222  27.6467542
  43.8430664  53.5632617  28.9847770  37.9558009  59.0605882  23.7996244
  37.8993211  59.5174433  22.9603876  38.5086352  58.2996566  23.6219087
  41.7662815  54.8495614  24.6246363  41.5099749  54.4492249  25.4554571
  41.1415683  55.5639408  24.4996502  38.6892789  60.2510663  21.0948773
  38.6341592  60.0854934  20.1537217  38.0638844  60.9586696  21.2510963
  23.4785304  55.4878727  34.9210195  24.1244167  54.9777681  35.4097420
  23.2702455  56.2247409  35.4953620  31.9988914  49.7518772  20.6734091
  31.9867584  50.6960612  20.8302362  32.8912336  49.5688917  20.3793553
  35.8141033  46.3461549  24.9280028  35.0473429  45.7920035  25.0736711
  36.2251738  46.4183417  25.7894180  27.8182795  52.6346344  39.0185209
  28.6814256  52.2783149  39.2288534  27.2448205  52.2960239  39.7060614
  15.1449909   5.2834570  16.5492917  15.7828319   5.1641318  15.8456257
  15.0270752   6.2315414  16.6080869  11.9539616   5.2361998  16.4854442
  11.6158127   5.1203063  15.5974977  12.8229384   4.8353164  16.4655448
  12.4359399   6.3896850  22.4440647  12.4248039   5.9949648  21.5721151
  12.5980038   5.6562923  23.0374419   9.1566660   9.1733962  21.3919831
   8.8656526  10.0779593  21.2766498   9.7923644   9.2150490  22.1063901
  10.0822867   6.5510810  17.9821191  10.6786439   6.3266833  17.2678154
  10.1397838   5.8095556  18.5846639  20.0999605   2.9461257  14.5279104
  20.8324777   2.3760474  14.7616933  19.3438961   2.5582858  14.9685609
  14.1156545   8.8595377  18.3869625  13.8157268   9.7620416  18.2785432
  13.7707604   8.5927561  19.2390778  17.5153689   1.3777918  16.0667062
  16.6070566   1.3093326  15.7725823  17.4641284   1.8549863  16.8948888
   9.0977325  15.6239698  11.3540593   9.0201354  16.5747523  11.4329073
   8.4938968  15.2785570  12.0115519  11.5894554   2.7967563  24.0101960
  10.8127888   3.3561483  24.0004824  12.2285117   3.2824346  24.5316830
  19.3815335  -0.4205644  17.8444936  18.7389715  -0.1273111  17.1984731
  18.8770263  -0.5352724  18.6498133   9.8440927   5.6053017  23.5719927
  10.5855611   6.1438061  23.2954750   9.1377912   6.2319305  23.7291478
  15.3196266   7.7482157  22.1692088  15.7279622   7.3064568  21.4246720
  14.5973528   7.1734785  22.4226281  11.6727336   2.6854764  19.5425645
  12.5188532   3.1094177  19.6860294  11.6125974   2.0288388  20.2364208
  15.6425081   8.3083348  15.9244377  15.0133943   8.4729062  15.2220445
  15.2550743   8.7224957  16.6955341  19.5214313   9.2437786  13.2788741
  18.8365351   9.6236687  12.7285774  19.6058162   9.8533112  14.0120688
  14.8226782   0.3459132  21.2006819  14.5787714   1.1001193  20.6641094
  15.0986712   0.7244480  22.0354066  16.7765244   6.8897745  19.8784084
  16.9882140   7.5329504  19.2018465  16.7294993   6.0560061  19.4106014
   8.0877124   7.5929237  16.1274225   8.6578481   8.0216506  15.4891710
   8.6785236   7.3111822  16.8258411  17.8911072   9.7669700  18.0506442
  18.7128516   9.3649887  17.7689123  17.8873475   9.6637934  19.0022557
  11.6567676   9.3153743  20.2067152  11.7212108   9.7774151  21.0425324
  10.9478600   8.6851108  20.3349462  25.9817065   6.1108448  14.3991413
  25.2280774   5.5415847  14.2435417  26.1164607   6.0771113  15.3462048
  12.9984170  11.6045417  24.2046474  12.5548024  10.8181796  23.8867379
  13.6601383  11.7924568  23.5390365   7.7571291  13.1341219  18.7307153
   8.3078716  13.0058282  17.9584147   6.9182767  13.4336108  18.3802046
  15.0965408  11.8848217  22.2327876  15.0783883  12.7057098  21.7408145
  16.0185328  11.7602292  22.4578017  11.5538462   9.3992347  23.0751384
  12.0866799   8.6380635  22.8450692  11.0252543   9.1065999  23.8175539
  17.8984021   6.7227360  15.7037242  17.2407695   7.4126621  15.7917371
  18.7024420   7.1123792  16.0471229  16.7089480   5.0771732  13.7541184
  17.2221361   5.7101724  14.2562894  17.3590703   4.4772928  13.3884544
  13.1870310   2.5521188  15.9999525  12.2692872   2.7736135  15.8421213
  13.6030454   2.6267498  15.1411232  17.4751276  10.0577734  11.8820327
  17.0213603   9.2168644  11.9385517  16.8445243  10.6939132  12.2195107
  15.9184215  11.8954231  12.8170145  16.2107189  12.4559288  12.0982511
  16.4282836  12.1882792  13.5723304  10.8817840  12.6734582  13.9063598
  10.8394019  12.8995428  12.9772130  11.7980539  12.4397956  14.0549399
  14.3283474   3.1418649  20.8044227  14.6832862   3.3690122  21.6638693
  14.9755605   3.4737026  20.1821483  20.0581211   6.2637085  11.5093556
  19.9199110   6.4538681  10.5814746  19.7017430   7.0256468  11.9661607
  20.0850591   8.3313612  16.5204828  20.5187097   8.2388901  17.3687882
  20.7982171   8.3071113  15.8824844  13.8178485  11.9315706  18.0537928
  13.8715508  12.5006642  18.8215644  12.9493267  12.1017591  17.6891966
  20.9466140   8.3737313  19.0537713  21.1402030   9.2783123  19.2996988
  20.8466758   7.9144732  19.8876298  16.0081249   8.5244055  24.6278594
  15.8566755   8.2954607  23.7108678  15.9985928   9.4814657  24.6409939
  12.7766585   6.0975968  19.6124860  13.7058645   6.2487128  19.4393828
  12.3557615   6.1859989  18.7573507  11.5754917  10.1226633  17.3823398
  11.4366003   9.7545417  18.2549336  10.7869513  10.6374272  17.2107356
  12.1703069  15.2235729   8.7248934  12.3454825  14.7523772   9.5394557
  11.4835857  15.8501495   8.9530195  13.1260132   9.5008235  14.7712236
  12.7909965   9.4609005  15.6669886  12.6264078   8.8352951  14.2982646
   7.1004376   4.9075865  20.2964817   6.9624174   4.1756104  20.8976356
   8.0109300   4.8184765  20.0149005   9.7286677   4.6195825  19.7848497
  10.4386295   3.9789017  19.7435115   9.6855985   4.8708720  20.7074677
  17.7173455  11.5563178  22.7055076  17.6586002  10.8722398  22.0385659
  18.1192974  12.2982168  22.2535702   6.7364154  18.3725092  15.4988795
   6.9760752  19.0043616  16.1767813   5.8933351  18.0213132  15.7854154
  17.7190863   9.5202762  20.9369055  16.8317641   9.1828684  21.0595454
  18.2889414   8.7885793  21.1737821  11.2492016  14.1804214  17.9030299
  11.1762188  14.9859186  18.4149603  10.8069409  14.3796180  17.0778320
  11.0381796  13.4175984  11.4133120  10.2549318  13.9597664  11.5071345
  11.7374541  13.9349964  11.8127361  22.2008203   4.9310979  15.6985617
  22.1898080   5.8135695  15.3279550  21.3325583   4.5782530  15.5040154
  13.7090700  14.0791048  20.0588457  14.4218672  14.7138513  19.9864359
  13.2180728  14.1754914  19.2428459   8.7602613  11.8285492  20.8794028
   9.4612073  12.4621975  21.0323422   8.2897728  12.1700223  20.1189667
  16.5603899   4.3830099  18.7046578  15.9075349   4.6306007  18.0499031
  16.9384279   3.5694237  18.3709056  13.5211073  14.4189792  12.8074749
  13.7033468  13.6011448  13.2702501  14.3444059  14.6357485  12.3699639
  13.8553239  13.3457978  10.0689797  14.3841005  12.8350432   9.4559959
  14.1181458  13.0300508  10.9335330  12.6091472   5.1249910  25.1912616
  11.9332109   5.0244040  25.8614991  13.4319106   4.9689124  25.6548613
   4.3570331  11.3621847  17.8125131   4.9423768  10.6165535  17.9453035
   4.1595170  11.6725804  18.6961795   7.2108986  14.3973094  12.8287573
   6.5419362  14.8819222  12.3451613   7.0721856  14.6442315  13.7430952
  11.3514255  16.4316838  19.4270232  11.9032563  16.5948459  20.1919317
  11.6920449  17.0221276  18.7550256  16.2025129  11.2578095  25.2818886
  16.7465033  11.8708054  24.7873841  15.6211974  11.8157674  25.7985899
  14.4882642  14.3798813  16.4133914  14.3633782  13.5788553  15.9044859
  15.1461733  14.8745007  15.9247884  16.5517551  12.1807833  18.0413464
  15.6047886  12.0613185  17.9691791  16.9000324  11.2930331  18.1239725
  13.5563984  11.9760550  14.2417816  13.4088946  11.0477257  14.4225386
  14.3817478  11.9980640  13.7574891  17.1598106  12.7989108  15.3282689
  18.0844653  12.5931970  15.1907140  16.9913409  12.5505509  16.2372030
  16.9493422  13.3174776  10.6844780  17.1230300  12.7521198   9.9318633
  17.4422313  14.1175671  10.5024270  22.8032813   6.0811199  12.3035080
  23.2463959   5.3318524  11.9054203  21.9259324   6.0721335  11.9208812
  17.9368595  12.6341540   7.7841678  18.6319499  13.2548233   8.0028993
  18.2791745  11.7836891   8.0594056  19.8360018  10.0841246   9.3129009
  20.3611342  10.4228518   8.5878329  19.7482370   9.1488261   9.1292144
  11.4980066  13.9975319  21.4418886  11.8067193  13.7524466  22.3141585
  12.2955548  14.2021958  20.9537756  11.5200678  16.1513229  13.6724262
  11.0805669  15.6589608  14.3657119  12.2708795  15.6086197  13.4316338
   3.9993017  12.3424770  13.6748891   4.8251037  12.0428542  13.2947534
   3.6487069  11.5732392  14.1238679   8.9674551  11.6951238  15.7446564
   8.3454560  11.0321943  15.4448792   9.6379417  11.7212370  15.0620212
  19.5253924  10.7174149  24.6180207  18.7349467  10.6998288  24.0784707
  19.2887278  11.2562443  25.3729244  19.6451799   7.5666616  21.9312936
  19.6949804   7.4016623  22.8728459  19.5365722   6.6993875  21.5410817
  16.9355561   3.5497544  23.2472242  17.8365424   3.4104009  22.9556240
  17.0103536   3.7151999  24.1870420  21.1469996   9.9863557  22.1754957
  20.8554804  10.3493538  23.0118418  20.5342127   9.2730565  21.9968289
  22.3465678   7.5516437  14.6957528  23.1812569   7.9906241  14.8595088
  22.4824807   7.0755090  13.8765773  19.3957184   5.1096172  20.6435015
  19.8711305   5.3023818  19.8353867  18.4722749   5.1655358  20.3978399
  18.0958853   1.9861932  18.8763321  19.0476276   2.0860030  18.8975545
  17.9262303   1.1940200  19.3861405  16.1173232  -0.9282485  19.0622722
  15.5223164  -0.6477472  18.3669210  15.8322929  -0.4388584  19.8339463
  20.5746931   5.2068052  17.9905621  20.5423251   4.2684052  18.1765304
  21.1847554   5.2852088  17.2571445  20.7241419   1.9979095  18.0363904
  20.2080468   1.2137552  17.8493833  21.6081368   1.6697812  18.2010423
  26.3923480   6.2684058  17.1311657  27.1226869   6.0069347  17.6919361
  25.7830426   5.5312780  17.1713725  24.4738778   4.4091921  17.7286109
  23.7471941   4.2747886  17.1202600  24.0586064   4.7168750  18.5342827
  12.2968954   8.1281851  25.4933482  13.2171963   8.3060450  25.6873528
  12.2618537   7.1837896  25.3413181   5.2931027   6.0382885  18.1356263
   5.5117036   6.9699993  18.1544297   5.7056800   5.6790860  18.9211067
  10.0290162   5.0413230  26.3424073   9.5457244   5.8413590  26.5487962
  10.1151101   5.0521175  25.3891517   5.9563499   8.9317765  18.3792507
   6.9106753   8.9001707  18.3122439   5.7576023   8.4708388  19.1942733
   6.5462882   7.5018881  20.9463305   7.3655771   7.9962959  20.9698142
   6.8199689   6.5850849  20.9180872  22.0916573   0.6303773  15.0819540
  22.6861063   0.3899509  14.3712848  22.1643156  -0.0889096  15.7093076
   4.3113728  14.4737384  15.3962705   4.1768196  13.7137785  14.8300703
   3.8945790  15.1978284  14.9291494  24.3987645   3.9369974  13.8562961
  23.8387203   4.0063163  14.6294523  23.7931149   3.7610959  13.1362458
   7.4682854  15.3706701  15.6081148   7.3515238  16.3152134  15.5059838
   6.6475300  15.0680263  15.9966947  14.3251188   8.9037862  27.1447642
  15.1942348   9.0778514  26.7834277  13.8457939   9.7232279  27.0223372
   8.4937368  16.0234963  18.8237076   9.3964615  16.0558573  19.1403571
   8.2674738  15.0935414  18.8383412  10.2490970  14.7765950  15.4847155
   9.2986601  14.7767811  15.3711527  10.5523456  14.0298684  14.9683189
  22.7933370  20.5653916  16.4854442  22.4551882  20.4494981  15.5974977
  23.6623138  20.1645081  16.4655448  18.6520186  22.4189393  12.4751333
  18.0885051  22.3279329  11.7067620  18.5372581  21.5989297  12.9553825
  23.2753153  21.7188768  22.4440647  23.2641794  21.3241566  21.5721151
  23.4373792  20.9854840  23.0374419  16.1984618  23.9140584  15.3135553
  16.9905910  23.5731409  14.8981852  16.4381268  24.0235559  16.2337706
  24.2319744  26.0860360   7.7865798  23.5807724  26.6714441   7.3999811
  25.0264107  26.6166555   7.8460835  18.1575372  23.1749497   8.1852932
  18.9306248  22.6278484   8.0465808  18.5100770  24.0393747   8.3967393
  19.9960414  24.5025880  21.3919831  19.7050280  25.4071510  21.2766498
  20.6317399  24.5442407  22.1063901  20.9216621  21.8802728  17.9821191
  21.5180193  21.6558751  17.2678154  20.9791593  21.1387474  18.5846639
  20.4941649  19.3342164   5.8171382  20.7467170  18.8123685   5.0554845
  19.5566208  19.1708309   5.9198065  25.5384932  18.3377942  13.6246125
  26.3248021  17.9197365  13.2736542  25.8023637  19.2424034  13.7927773
  25.7095010  23.7750792   8.3234782  25.0740843  23.8485419   9.0355687
  25.3792416  24.3644391   7.6453861  30.9393359  18.2753175  14.5279104
  31.6718531  17.7052392  14.7616933  30.1832715  17.8874776  14.9685609
  20.2137938  21.2370269   8.0195757  20.0974196  20.5615173   8.6876841
  20.3240198  20.7502643   7.2027910  22.5569479  20.6980417  11.7242446
  22.1927686  20.1711038  12.4355368  23.4136595  20.3078886  11.5508931
  28.4618780  11.9874749  18.9873712  28.1302104  12.8570160  18.7634927
  27.8664393  11.6711033  19.6667743  22.1974966  15.7270316   6.7203795
  22.3649368  16.5950553   7.0874266  22.0072135  15.8897598   5.7965084
  24.9550299  24.1887295  18.3869625  24.6551022  25.0912334  18.2785432
  24.6101359  23.9219478  19.2390778  18.4062781  20.6401092  14.4206329
  17.4813277  20.5077306  14.6284021  18.6547194  21.4195311  14.9176272
  22.1764187  18.1827974   7.7050461  22.0563812  18.6285025   8.5435942
  21.4816775  18.5313291   7.1464000  15.7671592  20.2834366  15.2550118
  15.8963973  20.5368844  16.1689530  15.0869043  20.8762074  14.9354773
  19.9371079  30.9531616  11.3540593  19.8595109  31.9039441  11.4329073
  19.3332723  30.6077488  12.0115519  22.4288309  18.1259481  24.0101960
  21.6521643  18.6853401  24.0004824  23.0678872  18.6116264  24.5316830
  27.8749253  18.6549447   8.5330795  28.7867109  18.8876834   8.3578493
  27.3658900  19.2386491   7.9705874  20.6834681  20.9344934  23.5719927
  21.4249365  21.4729978  23.2954750  19.9771667  21.5611223  23.7291478
  26.1590021  23.0774075  22.1692088  26.5673377  22.6356485  21.4246720
  25.4367282  22.5026702  22.4226281  22.5121091  18.0146682  19.5425645
  23.3582286  18.4386095  19.6860294  22.4519728  17.3580306  20.2364208
  26.4818835  23.6375265  15.9244377  25.8527698  23.8020980  15.2220445
  26.0944497  24.0516875  16.6955341  30.3608067  24.5729703  13.2788741
  29.6759105  24.9528605  12.7285774  30.4451917  25.1825030  14.0120688
  25.6620536  15.6751050  21.2006819  25.4181468  16.4293110  20.6641094
  25.9380467  16.0536398  22.0354066  25.2185228  14.8307483  16.7820656
  24.3569707  15.1288736  17.0737394  25.2447663  15.0477882  15.8501689
  22.0346797  23.3749673  13.1894462  22.4985143  23.6537376  12.3999084
  21.7703595  22.4733118  13.0067553  18.9270878  22.9221155  16.1274225
  19.4972235  23.3508423  15.4891710  19.5178990  22.6403740  16.8258411
  20.9715683  19.4972826   9.9984027  21.6739727  19.9493870  10.4657954
  20.6396312  18.8556645  10.6263920  19.4196045  18.0884582  24.3735237
  18.7894705  18.7700863  24.6070633  19.3132133  17.9767664  23.4288375
  14.7141017  17.7556379  15.3001161  13.9240071  18.0113907  14.8241271
  15.2052265  18.5704716  15.4053201  28.7304827  25.0961618  18.0506442
  29.5522271  24.6941805  17.7689123  28.7267230  24.9929852  19.0022557
  16.6655763  18.1200958  12.2584637  15.8686926  18.2319652  12.7768133
  16.4381355  18.4587610  11.3925528  22.4961430  24.6445661  20.2067152
  22.5605863  25.1066068  21.0425324  21.7872354  24.0143026  20.3349462
  12.9978720  18.0086869  17.7316151  13.2486759  18.8933879  17.9973727
  13.5338269  17.8291470  16.9591243  36.8210820  21.4400366  14.3991413
  36.0674528  20.8707764  14.2435417  36.9558361  21.4063031  15.3462048
  22.2109448  26.3113768  10.0746132  22.0755123  27.1565304  10.5030980
  22.7519260  26.5133046   9.3112066  18.6976788  12.3905348  26.7360488
  18.3043733  11.8371547  27.4108132  19.5142928  12.7015927  27.1267005
  15.6638845  23.8289207  10.6474057  16.1763366  24.6232457  10.7979622
  16.3161558  23.1315497  10.5807659  17.4733730  26.9454963  12.7296811
  17.6500358  27.8672927  12.5417795  18.2690564  26.6313382  13.1591190
  21.6144749  13.8063227  24.3280744  22.3554462  14.4070381  24.2485207
  21.8462671  13.0640865  23.7698787  16.7586087  18.9919595  22.6058974
  16.6439602  18.0904852  22.9066073  15.9030604  19.2383291  22.2543790
  23.8377924  26.9337335  24.2046474  23.3941779  26.1473714  23.8867379
  24.4995138  27.1216485  23.5390365  18.5965046  28.4633137  18.7307153
  19.1472471  28.3350200  17.9584147  17.7576521  28.7628026  18.3802046
  25.9359162  27.2140135  22.2327876  25.9177638  28.0349016  21.7408145
  26.8579082  27.0894210  22.4578017  22.3932217  24.7284264  23.0751384
  22.9260553  23.9672553  22.8450692  21.8646298  24.4357916  23.8175539
  25.5601912   9.8344330  18.6045026  25.2166181  10.7245972  18.5284136
  25.9280874   9.6445988  17.7414611  13.6287762  22.1577861  11.4233628
  14.4662984  22.5674869  11.2067336  13.8066030  21.2177303  11.3933822
  25.5252194  19.8252941   7.1117461  25.0098818  20.5957546   7.3505848
  25.2529503  19.1518078   7.7350522  23.1099305  14.6702642  12.1702699
  22.2540902  14.2809493  11.9908338  23.5226257  14.7494603  11.3102485
  24.6398452  12.2048986  16.5694259  24.1363247  12.1679121  15.7562064
  24.9329059  13.1141728  16.6290916  20.8841338  12.2887715  15.5760441
  21.7494335  12.0930524  15.2166330  20.9518847  12.0598067  16.5029798
  30.4986468  22.5785296   9.0470634  29.7215911  22.2396456   8.6025796
  31.1777949  22.5837919   8.3725599  25.3138497  17.6980034   8.9377242
  25.0088633  18.0126183   9.7887385  26.2668940  17.7761453   8.9804575
  23.7584929  23.8570257  10.5870196  23.2306291  23.1223016  10.2743434
  23.2572432  24.6344933  10.3410164  18.4903657  14.5189923  12.9476808
  19.0647409  14.2965105  12.2150001  19.0774639  14.5878618  13.7005409
  27.5483234  20.4063650  13.7541184  28.0615116  21.0393642  14.2562894
  28.1984458  19.8064846  13.3884544  18.8173244  16.5494384   6.9672693
  17.9810556  16.8869071   7.2881968  18.6778014  16.4143364   6.0299830
  20.7926325  11.3931172  11.6751877  20.1390737  11.0780189  11.0508492
  20.7506799  10.7706913  12.4011700  21.9037529  21.6750467   3.5905169
  20.9964591  21.4439721   3.7896318  22.4008561  20.8788086   3.7779151
  24.8105608  30.3847974   6.5101855  24.1367307  30.6879671   7.1186813
  25.1971430  31.1877055   6.1607312  24.0264065  17.8813106  15.9999525
  23.1086626  18.1028053  15.8421213  24.4424209  17.9559416  15.1411232
  24.8099113  19.2804521  11.1302205  25.5570932  19.7925918  10.8209327
  25.0790702  18.9588574  11.9906598  23.0825763  21.7763062   8.1129159
  22.1736982  21.4922095   8.2101629  23.1120847  22.1962141   7.2532466
  28.3145030  25.3869652  11.8820327  27.8607357  24.5460561  11.9385517
  27.6838997  26.0231050  12.2195107  27.2577950  16.3161638  13.1120994
  26.5200707  15.8039024  13.4431237  27.5104723  15.8762019  12.3004271
  26.7577970  27.2246148  12.8170145  27.0500944  27.7851205  12.0982511
  27.2676590  27.5174709  13.5723304  27.3589577   9.0937890  13.7062764
  27.6648454   8.2335253  13.4188679  28.0842182   9.6855510  13.5061757
  13.6513933  19.4968576  12.0944361  13.4538333  18.9037937  11.3695428
  13.0960597  19.1920786  12.8120300  21.6310657  19.3891683  14.2138955
  21.6859267  18.4365519  14.1381431  20.8201859  19.5451122  14.6980253
  22.7801851  23.3171806   5.4517238  22.3421281  22.6007665   4.9922875
  23.5212292  23.5447920   4.8902329  19.5703017  18.0068742  11.9729333
  18.7570882  18.3062913  12.3794526  20.0662011  17.6124431  12.6903816
  21.7211595  28.0026499  13.9063598  21.6787774  28.2287346  12.9772130
  22.6374294  27.7689874  14.0549399  30.8974965  21.5929003  11.5093556
  30.7592864  21.7830599  10.5814746  30.5411184  22.3548386  11.9661607
  19.0617092  15.5787098  17.5890568  19.7016471  15.4375857  16.8913532
  18.2294622  15.2921611  17.2129170  30.9244345  23.6605530  16.5204828
  31.3580852  23.5680819  17.3687882  31.6375926  23.6363030  15.8824844
  19.8377395  24.8789528  13.7025561  20.6317994  24.3839848  13.5008136
  19.1269088  24.3507391  13.3393266  24.6572240  27.2607624  18.0537928
  24.7109262  27.8298560  18.8215644  23.7887021  27.4309509  17.6891966
  16.1460159  19.0232610   9.7785314  15.2157747  18.9617066   9.9955276
  16.2417631  18.5008563   8.9821955  16.0645708  15.5487423  12.3663555
  16.3252525  16.4632756  12.2572716  16.8862880  15.0811865  12.5160168
  17.5370633  16.9625180  19.5362380  18.2093687  16.7542542  18.8875029
  16.7100420  16.7647266  19.0967612  23.4396205  13.5887121  21.5528041
  22.7924120  14.2877071  21.4592517  24.2097221  14.0223265  21.9204289
  23.6160340  21.4267886  19.6124860  24.5452400  21.5779045  19.4393828
  23.1951370  21.5151907  18.7573507  22.4148671  25.4518550  17.3823398
  22.2759757  25.0837335  18.2549336  21.6263268  25.9666190  17.2107356
  23.0096823  30.5527647   8.7248934  23.1848579  30.0815690   9.5394557
  22.3229611  31.1793413   8.9530195  23.9653887  24.8300153  14.7712236
  23.6303719  24.7900923  15.6669886  23.4657832  24.1644869  14.2982646
  17.9398131  20.2367783  20.2964817  17.8017929  19.5048022  20.8976356
  18.8503054  20.1476683  20.0149005  26.9013078  22.1756187   5.0449295
  26.2842249  21.4503015   4.9482348  26.4329567  22.9365548   4.7016370
  20.5680431  19.9487742  19.7848497  21.2780050  19.3080935  19.7435115
  20.5249739  20.2000637  20.7074677  19.2809365  16.9352960  21.6044136
  18.7446722  16.4843699  22.2565732  18.6926074  17.0698869  20.8614600
  17.5757909  33.7017010  15.4988795  17.8154507  34.3335534  16.1767813
  16.7327105  33.3505050  15.7854154  10.2113764  21.1818771  14.2612107
  10.8984804  20.8680501  13.6733122  10.0561893  22.0860136  13.9879358
  15.0148486  16.0708968  18.6897131  14.9306675  15.4634637  17.9547540
  14.1931193  16.5617986  18.6906627  22.0885771  29.5096132  17.9030299
  22.0155942  30.3151103  18.4149603  21.6463164  29.7088098  17.0778320
  21.8775550  28.7467902  11.4133120  21.0943072  29.2889582  11.5071345
  22.5768295  29.2641882  11.8127361  25.1872200  14.5562531  14.0567326
  25.6840900  13.8032494  13.7368396  24.4159182  14.5926848  13.4910535
  33.0401958  20.2602897  15.6985617  33.0291834  21.1427612  15.3279550
  32.1719337  19.9074448  15.5040154  24.5484454  29.4082966  20.0588457
  25.2612426  30.0430431  19.9864359  24.0574483  29.5046832  19.2428459
  26.2701981  23.3134219  11.6305749  25.3358260  23.4335681  11.4610453
  26.4478650  22.4106685  11.3665759  21.7707169  16.6979914  13.7839010
  21.4004957  16.1450955  14.4719916  22.2666262  16.0938048  13.2314010
  29.6574532  19.1551538  12.1655783  30.1234985  19.9879530  12.0916086
  30.1082033  18.6896520  12.8701042  19.5996368  27.1577409  20.8794028
  20.3005827  27.7913892  21.0323422  19.1291483  27.4992141  20.1189667
  27.7250764  25.4995359   9.1641935  28.0010607  25.3851954  10.0735809
  26.8555262  25.1012844   9.1254108  27.6291195  11.5232125  16.2046684
  26.7154275  11.7536352  16.3728891  28.0584297  11.6070569  17.0560717
  24.3604828  29.7481710  12.8074749  24.5427222  28.9303366  13.2702501
  25.1837814  29.9649402  12.3699639  24.6946993  28.6749895  10.0689797
  25.2234759  28.1642350   9.4559959  24.9575213  28.3592425  10.9335330
  23.4485227  20.4541828  25.1912616  22.7725864  20.3535957  25.8614991
  24.2712861  20.2981042  25.6548613  15.1964086  26.6913764  17.8125131
  15.7817523  25.9457452  17.9453035  14.9988924  27.0017721  18.6961795
  18.0502741  29.7265012  12.8287573  17.3813116  30.2111140  12.3451613
  17.9115611  29.9734232  13.7430952   9.7881740  19.2619365  16.5329574
   9.8265840  18.7282955  17.3266692   9.2822033  18.7354570  15.9140551
  22.1908010  31.7608755  19.4270232  22.7426318  31.9240377  20.1919317
  22.5314203  32.3513193  18.7550256  17.1672503  14.1083905  20.0292116
  17.2313829  14.9698736  19.6169514  17.1039623  13.4957907  19.2964475
  16.6424775  16.1807038  23.6765151  17.2696814  15.7984115  24.2902675
  15.7852694  15.9621240  24.0420843  13.4190318  17.9883467   9.6083505
  13.7143759  17.0794145   9.5550559  12.5178354  17.9671206   9.2864508
  25.3276397  29.7090731  16.4133914  25.2027536  28.9080471  15.9044859
  25.9855488  30.2036924  15.9247884  16.9484565  16.0639463  15.5911054
  16.2271151  16.6775431  15.4518527  17.7377821  16.5997228  15.5127700
  27.3911305  27.5099751  18.0413464  26.4441641  27.3905102  17.9691791
  27.7394078  26.6222249  18.1239725  19.7510879  13.3993890  21.8651706
  20.2745280  13.6456186  22.6278015  19.5323212  14.2313925  21.4454843
  15.1478160  15.6697565   9.7322830  14.8190866  14.7894943   9.5497936
  15.5017530  15.6145233  10.6199220  24.3957739  27.3052467  14.2417816
  24.2482701  26.3769175  14.4225386  25.2211232  27.3272558  13.7574891
  18.2619983  15.9570534  10.0998308  18.6016055  16.4856456   9.3776917
  18.7092103  16.2950940  10.8756875  27.9991860  28.1281026  15.3282689
  28.9238408  27.9223887  15.1907140  27.8307164  27.8797427  16.2372030
  20.9563424  14.3407585  19.5501376  20.6160244  13.5415398  19.9522056
  20.2502430  14.6409296  18.9778209  21.6079895  11.4256897  18.0028699
  22.4305965  10.9517376  17.8807590  21.8517959  12.2047381  18.5027386
  20.2488130  14.4545156   8.2991601  20.9696492  14.8326409   7.7955318
  19.6253434  15.1734033   8.4026579  24.3919253  15.1590305   9.2349933
  24.6082867  16.0414943   8.9338761  23.9113320  14.7676518   8.5055575
  19.1318474  18.1176018  15.8120678  18.9863055  18.4316321  16.7044959
  18.6543678  18.7360918  15.2591576  20.9914857  15.1078566  15.8601567
  20.9776426  14.2119659  15.5233865  21.7087285  15.1149230  16.4939853
  22.8440988  15.5415906  17.9054695  22.5858766  16.4632977  17.9039025
  22.3126028  15.1446341  18.5955159  27.7887177  28.6466693  10.6844780
  27.9624054  28.0813116   9.9318633  28.2816068  29.4467588  10.5024270
  13.6064136  20.6581362  18.7508339  13.0617604  21.4341170  18.8828613
  14.4843486  21.0052167  18.5927460  20.3951753  13.9892946  11.1289138
  20.5167664  13.0609593  11.3280025  20.1053795  14.0031632  10.2167453
  23.2642943  11.6747857  14.2655857  23.2864640  11.7387190  13.3107837
  23.6811002  10.8352365  14.4596364  33.6426568  21.4103116  12.3035080
  34.0857714  20.6610442  11.9054203  32.7653078  21.4013253  11.9208812
  28.7762349  27.9633458   7.7841678  29.4713254  28.5840150   8.0028993
  29.1185499  27.1128809   8.0594056  14.3930158  19.7851259  21.6438496
  13.6511894  19.9333894  22.2303126  14.0722902  20.0459524  20.7805245
  30.6753772  25.4133163   9.3129009  31.2005096  25.7520436   8.5878329
  30.5876125  24.4780179   9.1292144  22.3373821  29.3267237  21.4418886
  22.6460947  29.0816384  22.3141585  23.1349303  29.5313875  20.9537756
  22.3594433  31.4805147  13.6724262  21.9199423  30.9881525  14.3657119
  23.1102550  30.9378114  13.4316338  14.8386772  27.6716687  13.6748891
  15.6644792  27.3720459  13.2947534  14.4880824  26.9024310  14.1238679
  19.8068305  27.0243156  15.7446564  19.1848314  26.3613861  15.4448792
  20.4773172  27.0504288  15.0620212  13.0395377  25.5903014  14.6337824
  12.2027285  25.1625188  14.4521825  13.0119022  25.7835457  15.5708615
  19.8792833  15.5024944  25.3379070  19.9280988  16.3787067  24.9556840
  20.4215347  14.9602337  24.7650713  19.3681812  25.5747079   9.2205025
  19.5169932  26.2582543   8.5671697  20.1748255  25.5552169   9.7354480
  22.1092121  16.2556316  22.0925429  21.2395430  16.5489882  21.8208017
  22.3451601  16.8396761  22.8132692  33.1859432  22.8808355  14.6957528
  34.0206324  23.3198159  14.8595088  33.3218561  22.4047008  13.8765773
  17.1234445  21.6012257  10.2266094  16.8780487  20.6974587  10.4246304
  17.2930359  21.6029407   9.2845572  24.8131155  12.4735933  19.6090849
  25.3313099  13.2096960  19.2837338  24.4586288  12.7799926  20.4437608
  16.3930092  17.3340614   7.7252255  15.6999337  17.4084969   7.0692291
  16.1481844  16.5700958   8.2473772  25.0643749   8.8936216  15.1291746
  25.3445503   8.2259405  15.7552172  25.8494356   9.0865311  14.6166410
  22.8677217  28.0695209   6.6916772  22.2951185  28.6885397   6.2387244
  23.4410011  28.6194571   7.2256694  26.0874477  28.3532360   7.8225354
  27.0205150  28.2877921   8.0258230  25.9997690  29.1888626   7.3639887
  28.7162494  27.6698230   4.7829302  28.6376125  27.3358094   5.6765060
  29.5372161  28.1619998   4.7820774  23.2524016  19.4056022   4.0332825
  24.1983121  19.2762230   4.1021243  22.8738261  18.6670684   4.5102253
  29.2245901  11.0712028  13.9959716  29.0270722  10.7627116  14.8803048
  29.8345606  11.7973667  14.1257646  37.2317235  21.5975976  17.1311657
  37.9620623  21.3361264  17.6919361  36.6224180  20.8604698  17.1713725
  35.3132532  19.7383839  17.7286109  34.5865696  19.6039804  17.1202600
  34.8979819  20.0460667  18.5342827  23.1362709  23.4573768  25.4933482
  24.0565718  23.6352367  25.6873528  23.1012292  22.5129814  25.3413181
  12.3544874  18.6512362  14.4186756  12.0347658  17.7977670  14.1261130
  11.8078302  18.8660940  15.1744724  16.1324781  21.3674803  18.1356263
  16.3510791  22.2991911  18.1544297  16.5450555  21.0082777  18.9211067
  23.0528999  11.8742888  10.1231951  22.2429727  11.5289973  10.4987197
  23.7413416  11.5650432  10.7119563  24.9819547  10.9520935  11.7456248
  25.5350586  11.3716389  12.4046271  25.2189634  10.0256683  11.7879204
  21.0052646  16.9408009  27.5259012  20.9049373  17.8902366  27.4571103
  20.7874188  16.6126248  26.6535082  12.2233134  22.2715274  16.3879878
  11.5296605  21.8569226  15.8749832  12.9706125  22.3135810  15.7913297
  28.3598354  13.0621460  11.2534912  27.7797023  13.7206264  10.8712964
  28.0934287  12.2398805  10.8422330  26.8101921  12.4626518  13.4556232
  27.3101699  12.5743053  12.6470551  27.4537529  12.1587571  14.0957041
  20.8683916  20.3705148  26.3424073  20.3850998  21.1705508  26.5487962
  20.9544855  20.3813093  25.3891517  14.1369876  22.2033527  14.2645893
  14.1140564  22.3021215  13.3127776  14.4470513  23.0498678  14.5863059
  16.7957254  24.2609682  18.3792507  17.7500507  24.2293625  18.3122439
  16.5969778  23.8000306  19.1942733  17.3856636  22.8310798  20.9463305
  18.2049525  23.3254877  20.9698142  17.6593444  21.9142767  20.9180872
  27.1423232  15.2221551  10.3091260  26.2549087  15.5071201  10.0911455
  27.5577221  15.0615314   9.4618537  30.4937768  15.2468072  14.0245600
  31.2698159  15.7364524  14.2970216  29.7685903  15.6726126  14.4817469
  32.9310327  15.9595691  15.0819540  33.5254818  15.7191427  14.3712848
  33.0036911  15.2402821  15.7093076  15.1507483  29.8029302  15.3962705
  15.0161951  29.0429703  14.8300703  14.7339545  30.5270202  14.9291494
  26.2866446  24.9866225   4.4039280  26.9902296  25.1916228   5.0196936
  25.5629094  25.5542987   4.6688364  27.1164256  20.7376087  10.5241550
  27.0599457  21.1944638   9.6849183  27.6692598  19.9766771  10.3464393
  30.9269062  16.5265819  11.3491670  30.6705996  16.1262454  12.1799878
  30.3021930  17.2409612  11.2241809  35.2381400  19.2661892  13.8562961
  34.6780958  19.3355081  14.6294523  34.6324903  19.0902876  13.1362458
  18.3076609  30.6998619  15.6081148  18.1908993  31.6444051  15.5059838
  17.4869055  30.3972180  15.9966947  28.1953143  25.4248755   6.4537740
  29.0298747  24.9929953   6.2715215  28.0337486  25.2530768   7.3814635
  27.8499035  21.9280868   7.8194080  27.7947839  21.7625139   6.8782524
  27.2245091  22.6356901   7.9756269  12.6391550  17.1648932  21.6455502
  13.2850414  16.6547886  22.1342727  12.4308701  17.9017614  22.2198927
  21.1595161  11.4288977   7.3979398  21.1473831  12.3730817   7.5547669
  22.0518583  11.2459122   7.1038859  19.3331123  31.3526881  18.8237076
  20.2358369  31.3850491  19.1403571  19.1068493  30.4227332  18.8383412
  21.0884725  30.1057867  15.4847155  20.1380356  30.1059729  15.3711527
  21.3917211  29.3590602  14.9683189  24.9747280   8.0231754  11.6525335
  24.2079676   7.4690240  11.7982017  25.3857985   8.0953622  12.5139486
  16.9789041  14.3116549  25.7430516  17.8420503  13.9553354  25.9533841
  16.4054452  13.9730444  26.4305920  36.8237418  35.9418406  16.5492917
  37.4615828  35.8225153  15.8456257  36.7058261  36.8899250  16.6080869
  33.6327125  35.8945834  16.4854442  33.2945636  35.7786898  15.5974977
  34.5016893  35.4936999  16.4655448  29.4913940  37.7481310  12.4751333
  28.9278805  37.6571247  11.7067620  29.3766335  36.9281215  12.9553825
  34.1146908  37.0480686  22.4440647  34.1035548  36.6533484  21.5721151
  34.2767547  36.3146758  23.0374419  27.0378372  39.2432502  15.3135553
  27.8299664  38.9023326  14.8981852  27.2775022  39.3527477  16.2337706
  35.0713499  41.4152278   7.7865798  34.4201479  42.0006358   7.3999811
  35.8657862  41.9458473   7.8460835  28.9969126  38.5041415   8.1852932
  29.7700002  37.9570402   8.0465808  29.3494525  39.3685664   8.3967393
  30.8354169  39.8317797  21.3919831  30.5444035  40.7363428  21.2766498
  31.4711153  39.8734325  22.1063901  31.7610375  37.2094646  17.9821191
  32.3573948  36.9850668  17.2678154  31.8185347  36.4679391  18.5846639
  31.3335404  34.6634081   5.8171382  31.5860925  34.1415602   5.0554845
  30.3959963  34.5000227   5.9198065  36.3778687  33.6669860  13.6246125
  37.1641776  33.2489283  13.2736542  36.6417391  34.5715952  13.7927773
  36.5488764  39.1042710   8.3234782  35.9134597  39.1777336   9.0355687
  36.2186170  39.6936309   7.6453861  41.7787114  33.6045093  14.5279104
  42.5112286  33.0344310  14.7616933  41.0226470  33.2166693  14.9685609
  31.0531693  36.5662187   8.0195757  30.9367951  35.8907091   8.6876841
  31.1633953  36.0794561   7.2027910  33.3963234  36.0272334  11.7242446
  33.0321441  35.5002955  12.4355368  34.2530349  35.6370803  11.5508931
  39.3012534  27.3166667  18.9873712  38.9695859  28.1862078  18.7634927
  38.7058148  27.0002951  19.6667743  33.0368721  31.0562234   6.7203795
  33.2043123  31.9242470   7.0874266  32.8465890  31.2189516   5.7965084
  35.7944054  39.5179213  18.3869625  35.4944777  40.4204252  18.2785432
  35.4495113  39.2511396  19.2390778  29.2456535  35.9693010  14.4206329
  28.3207032  35.8369224  14.6284021  29.4940948  36.7487229  14.9176272
  39.1941198  32.0361753  16.0667062  38.2858075  31.9677161  15.7725823
  39.1428793  32.5133698  16.8948888  33.0157941  33.5119891   7.7050461
  32.8957567  33.9576942   8.5435942  32.3210530  33.8605209   7.1464000
  26.6065346  35.6126283  15.2550118  26.7357727  35.8660762  16.1689530
  25.9262798  36.2053991  14.9354773  30.7764834  46.2823533  11.3540593
  30.6988863  47.2331358  11.4329073  30.1726477  45.9369406  12.0115519
  33.2682063  33.4551399  24.0101960  32.4915397  34.0145319  24.0004824
  33.9072626  33.9408182  24.5316830  41.0602844  30.2378191  17.8444936
  40.4177224  30.5310725  17.1984731  40.5557772  30.1231112  18.6498133
  38.7143008  33.9841365   8.5330795  39.6260864  34.2168751   8.3578493
  38.2052655  34.5678409   7.9705874  31.5228436  36.2636852  23.5719927
  32.2643120  36.8021896  23.2954750  30.8165421  36.8903141  23.7291478
  36.9983775  38.4065992  22.1692088  37.4067131  37.9648403  21.4246720
  36.2761037  37.8318620  22.4226281  33.3514845  33.3438599  19.5425645
  34.1976040  33.7678013  19.6860294  33.2913483  32.6872224  20.2364208
  37.3212590  38.9667183  15.9244377  36.6921452  39.1312897  15.2220445
  36.9338252  39.3808793  16.6955341  41.2001822  39.9021621  13.2788741
  40.5152860  40.2820522  12.7285774  41.2845671  40.5116948  14.0120688
  36.5014291  31.0042968  21.2006819  36.2575223  31.7585028  20.6641094
  36.7774221  31.3828315  22.0354066  38.4552753  37.5481580  19.8784084
  38.6669649  38.1913340  19.2018465  38.4082502  36.7143896  19.4106014
  36.0578982  30.1599401  16.7820656  35.1963461  30.4580654  17.0737394
  36.0841417  30.3769799  15.8501689  32.8740552  38.7041591  13.1894462
  33.3378897  38.9829294  12.3999084  32.6097350  37.8025036  13.0067553
  29.7664633  38.2513073  16.1274225  30.3365990  38.6800341  15.4891710
  30.3572745  37.9695657  16.8258411  31.8109438  34.8264744   9.9984027
  32.5133481  35.2785787  10.4657954  31.4790066  34.1848562  10.6263920
  30.2589799  33.4176500  24.3735237  29.6288460  34.0992781  24.6070633
  30.1525887  33.3059582  23.4288375  25.5534772  33.0848296  15.3001161
  24.7633826  33.3405825  14.8241271  26.0446019  33.8996634  15.4053201
  39.5698581  40.4253535  18.0506442  40.3916025  40.0233723  17.7689123
  39.5660984  40.3221770  19.0022557  27.5049517  33.4492875  12.2584637
  26.7080680  33.5611570  12.7768133  27.2775109  33.7879528  11.3925528
  33.3355185  39.9737579  20.2067152  33.3999617  40.4357986  21.0425324
  32.6266109  39.3434944  20.3349462  23.8372475  33.3378787  17.7316151
  24.0880513  34.2225797  17.9973727  24.3732023  33.1583388  16.9591243
  47.6604574  36.7692284  14.3991413  46.9068283  36.1999682  14.2435417
  47.7952116  36.7354948  15.3462048  33.0503202  41.6405686  10.0746132
  32.9148877  42.4857222  10.5030980  33.5913015  41.8424964   9.3112066
  26.5032600  39.1581124  10.6474057  27.0157120  39.9524374  10.7979622
  27.1555313  38.4607415  10.5807659  28.3127485  42.2746880  12.7296811
  28.4894113  43.1964845  12.5417795  29.1084318  41.9605300  13.1591190
  27.5979841  34.3211512  22.6058974  27.4833356  33.4196770  22.9066073
  26.7424359  34.5675209  22.2543790  34.6771679  42.2629253  24.2046474
  34.2335533  41.4765631  23.8867379  35.3388892  42.4508403  23.5390365
  29.4358800  43.7925054  18.7307153  29.9866225  43.6642118  17.9584147
  28.5970276  44.0919943  18.3802046  36.7752917  42.5432053  22.2327876
  36.7571392  43.3640934  21.7408145  37.6972837  42.4186128  22.4578017
  33.2325971  40.0576182  23.0751384  33.7654308  39.2964470  22.8450692
  32.7040052  39.7649834  23.8175539  24.4681517  37.4869778  11.4233628
  25.3056739  37.8966787  11.2067336  24.6459784  36.5469221  11.3933822
  36.3645949  35.1544859   7.1117461  35.8492572  35.9249464   7.3505848
  36.0923257  34.4809995   7.7350522  33.9493060  29.9994560  12.1702699
  33.0934656  29.6101410  11.9908338  34.3620012  30.0786521  11.3102485
  35.4792206  27.5340903  16.5694259  34.9757002  27.4971038  15.7562064
  35.7722813  28.4433646  16.6290916  31.7235092  27.6179633  15.5760441
  32.5888089  27.4222442  15.2166330  31.7912601  27.3889985  16.5029798
  41.3380223  37.9077214   9.0470634  40.5609666  37.5688373   8.6025796
  42.0171704  37.9129837   8.3725599  36.1532252  33.0271951   8.9377242
  35.8482387  33.3418100   9.7887385  37.1062694  33.1053371   8.9804575
  34.5978684  39.1862175  10.5870196  34.0700045  38.4514934  10.2743434
  34.0966186  39.9636851  10.3410164  39.5771530  37.3811195  15.7037242
  38.9195204  38.0710456  15.7917371  40.3811929  37.7707627  16.0471229
  29.3297411  29.8481841  12.9476808  29.9041163  29.6257022  12.2150001
  29.9168394  29.9170535  13.7005409  38.3876989  35.7355568  13.7541184
  38.9008870  36.3685560  14.2562894  39.0378212  35.1356763  13.3884544
  29.6566998  31.8786302   6.9672693  28.8204311  32.2160988   7.2881968
  29.5171768  31.7435282   6.0299830  31.6320079  26.7223090  11.6751877
  30.9784491  26.4072107  11.0508492  31.5900553  26.0998830  12.4011700
  32.7431284  37.0042385   3.5905169  31.8358346  36.7731638   3.7896318
  33.2402316  36.2080004   3.7779151  34.8657819  33.2105023  15.9999525
  33.9480381  33.4319970  15.8421213  35.2817963  33.2851334  15.1411232
  35.6492867  34.6096439  11.1302205  36.3964686  35.1217836  10.8209327
  35.9184457  34.2880492  11.9906598  33.9219517  37.1054980   8.1129159
  33.0130737  36.8214012   8.2101629  33.9514601  37.5254058   7.2532466
  39.1538785  40.7161569  11.8820327  38.7001112  39.8752479  11.9385517
  38.5232751  41.3522968  12.2195107  38.0971704  31.6453555  13.1120994
  37.3594461  31.1330941  13.4431237  38.3498478  31.2053937  12.3004271
  37.5971724  42.5538066  12.8170145  37.8894698  43.1143123  12.0982511
  38.1070345  42.8466627  13.5723304  38.1983332  24.4229807  13.7062764
  38.5042208  23.5627171  13.4188679  38.9235936  25.0147427  13.5061757
  24.4907688  34.8260494  12.0944361  24.2932088  34.2329855  11.3695428
  23.9354352  34.5212704  12.8120300  32.4704411  34.7183600  14.2138955
  32.5253021  33.7657437  14.1381431  31.6595613  34.8743039  14.6980253
  33.6195605  38.6463723   5.4517238  33.1815035  37.9299582   4.9922875
  34.3606046  38.8739838   4.8902329  30.4096771  33.3360660  11.9729333
  29.5964637  33.6354831  12.3794526  30.9055766  32.9416349  12.6903816
  32.5605349  43.3318417  13.9063598  32.5181528  43.5579263  12.9772130
  33.4768048  43.0981792  14.0549399  36.0070983  33.8002485  20.8044227
  36.3620371  34.0273958  21.6638693  36.6543114  34.1320861  20.1821483
  41.7368720  36.9220920  11.5093556  41.5986619  37.1122516  10.5814746
  41.3804939  37.6840303  11.9661607  29.9010846  30.9079016  17.5890568
  30.5410225  30.7667775  16.8913532  29.0688377  30.6213529  17.2129170
  41.7638100  38.9897447  16.5204828  42.1974606  38.8972736  17.3687882
  42.4769680  38.9654948  15.8824844  30.6771150  40.2081446  13.7025561
  31.4711748  39.7131766  13.5008136  29.9662842  39.6799309  13.3393266
  35.4965994  42.5899542  18.0537928  35.5503017  43.1590478  18.8215644
  34.6280776  42.7601427  17.6891966  26.9853913  34.3524528   9.7785314
  26.0551502  34.2908983   9.9955276  27.0811385  33.8300480   8.9821955
  26.9039463  30.8779341  12.3663555  27.1646280  31.7924674  12.2572716
  27.7256635  30.4103783  12.5160168  28.3764388  32.2917098  19.5362380
  29.0487441  32.0834460  18.8875029  27.5494174  32.0939184  19.0967612
  42.6253649  39.0321148  19.0537713  42.8189539  39.9366959  19.2996988
  42.5254267  38.5728567  19.8876298  37.6868758  39.1827891  24.6278594
  37.5354264  38.9538442  23.7108678  37.6773437  40.1398492  24.6409939
  34.4554094  36.7559804  19.6124860  35.3846154  36.9070963  19.4393828
  34.0345124  36.8443824  18.7573507  33.2542426  40.7810468  17.3823398
  33.1153512  40.4129252  18.2549336  32.4657022  41.2958107  17.2107356
  33.8490578  45.8819564   8.7248934  34.0242334  45.4107608   9.5394557
  33.1623366  46.5085331   8.9530195  34.8047641  40.1592071  14.7712236
  34.4697474  40.1192841  15.6669886  34.3051587  39.4936787  14.2982646
  28.7791885  35.5659701  20.2964817  28.6411683  34.8339940  20.8976356
  29.6896809  35.4768601  20.0149005  37.7406833  37.5048105   5.0449295
  37.1236003  36.7794933   4.9482348  37.2723321  38.2657465   4.7016370
  31.4074186  35.2779660  19.7848497  32.1173804  34.6372852  19.7435115
  31.3643494  35.5292555  20.7074677  39.3960964  42.2147013  22.7055076
  39.3373511  41.5306233  22.0385659  39.7980483  42.9566003  22.2535702
  30.1203120  32.2644878  21.6044136  29.5840477  31.8135616  22.2565732
  29.5319828  32.3990787  20.8614600  28.4151663  49.0308927  15.4988795
  28.6548261  49.6627451  16.1767813  27.5720860  48.6796967  15.7854154
  29.5305379  31.7233529   4.1670600  28.6534845  31.6022330   3.8032846
  30.0063132  30.9319608   3.9149488  39.3978372  40.1786597  20.9369055
  38.5105150  39.8412519  21.0595454  39.9676923  39.4469629  21.1737821
  21.0507519  36.5110689  14.2612107  21.7378559  36.1972419  13.6733122
  20.8955648  37.4152054  13.9879358  25.8542241  31.4000886  18.6897131
  25.7700430  30.7926555  17.9547540  25.0324947  31.8909904  18.6906627
  32.9279525  44.8388050  17.9030299  32.8549697  45.6443021  18.4149603
  32.4856918  45.0380015  17.0778320  32.7169305  44.0759820  11.4133120
  31.9336827  44.6181500  11.5071345  33.4162050  44.5933799  11.8127361
  36.0265955  29.8854449  14.0567326  36.5234654  29.1324411  13.7368396
  35.2552936  29.9218766  13.4910535  43.8795712  35.5894815  15.6985617
  43.8685588  36.4719530  15.3279550  43.0113092  35.2366365  15.5040154
  35.3878209  44.7374884  20.0588457  36.1006181  45.3722348  19.9864359
  34.8968237  44.8338750  19.2428459  37.1095736  38.6426136  11.6305749
  36.1752014  38.7627599  11.4610453  37.2872404  37.7398603  11.3665759
  32.6100924  32.0271832  13.7839010  32.2398711  31.4742872  14.4719916
  33.1060016  31.4229966  13.2314010  40.4968287  34.4843456  12.1655783
  40.9628739  35.3171447  12.0916086  40.9475787  34.0188437  12.8701042
  30.4390122  42.4869327  20.8794028  31.1399582  43.1205810  21.0323422
  29.9685237  42.8284059  20.1189667  38.5644518  40.8287277   9.1641935
  38.8404362  40.7143871  10.0735809  37.6949017  40.4304762   9.1254108
  38.4684950  26.8524043  16.2046684  37.5548029  27.0828269  16.3728891
  38.8978051  26.9362487  17.0560717  38.2391408  35.0413935  18.7046578
  37.5862858  35.2889842  18.0499031  38.6171788  34.2278073  18.3709056
  35.1998582  45.0773628  12.8074749  35.3820977  44.2595284  13.2702501
  36.0231568  45.2941320  12.3699639  35.5340748  44.0041813  10.0689797
  36.0628514  43.4934267   9.4559959  35.7968967  43.6884343  10.9335330
  34.2878981  35.7833746  25.1912616  33.6119618  35.6827875  25.8614991
  35.1106615  35.6272959  25.6548613  26.0357840  42.0205682  17.8125131
  26.6211277  41.2749370  17.9453035  25.8382679  42.3309639  18.6961795
  28.8896495  45.0556930  12.8287573  28.2206871  45.5403057  12.3451613
  28.7509365  45.3026150  13.7430952  20.6275495  34.5911282  16.5329574
  20.6659594  34.0574873  17.3266692  20.1215788  34.0646488  15.9140551
  33.0301764  47.0900673  19.4270232  33.5820072  47.2532295  20.1919317
  33.3707957  47.6805111  18.7550256  28.0066257  29.4375823  20.0292116
  28.0707584  30.2990654  19.6169514  27.9433377  28.8249825  19.2964475
  27.4818530  31.5098955  23.6765151  28.1090569  31.1276033  24.2902675
  26.6246449  31.2913157  24.0420843  37.8812638  41.9161931  25.2818886
  38.4252542  42.5291889  24.7873841  37.2999483  42.4741509  25.7985899
  24.2584073  33.3175385   9.6083505  24.5537514  32.4086063   9.5550559
  23.3572108  33.2963124   9.2864508  36.1670151  45.0382649  16.4133914
  36.0421291  44.2372388  15.9044859  36.8249242  45.5328842  15.9247884
  27.7878320  31.3931381  15.5911054  27.0664905  32.0067349  15.4518527
  28.5771575  31.9289146  15.5127700  38.2305060  42.8391669  18.0413464
  37.2835395  42.7197020  17.9691791  38.5787833  41.9514167  18.1239725
  25.9871914  30.9989482   9.7322830  25.6584620  30.1186861   9.5497936
  26.3411285  30.9437151  10.6199220  35.2351493  42.6344385  14.2417816
  35.0876455  41.7061092  14.4225386  36.0604986  42.6564476  13.7574891
  29.1013737  31.2862452  10.0998308  29.4409810  31.8148373   9.3776917
  29.5485858  31.6242858  10.8756875  38.8385615  43.4572944  15.3282689
  39.7632162  43.2515805  15.1907140  38.6700918  43.2089345  16.2372030
  31.7957178  29.6699503  19.5501376  31.4553998  28.8707316  19.9522056
  31.0896184  29.9701214  18.9778209  32.4473650  26.7548815  18.0028699
  33.2699719  26.2809293  17.8807590  32.6911713  27.5339299  18.5027386
  31.0881884  29.7837074   8.2991601  31.8090247  30.1618326   7.7955318
  30.4647189  30.5025950   8.4026579  35.2313007  30.4882223   9.2349933
  35.4476622  31.3706860   8.9338761  34.7507074  30.0968436   8.5055575
  29.9712229  33.4467936  15.8120678  29.8256809  33.7608239  16.7044959
  29.4937432  34.0652836  15.2591576  31.8308612  30.4370484  15.8601567
  31.8170180  29.5411577  15.5233865  32.5481040  30.4441148  16.4939853
  33.6834742  30.8707824  17.9054695  33.4252520  31.7924895  17.9039025
  33.1519783  30.4738259  18.5955159  38.6280931  43.9758611  10.6844780
  38.8017809  43.4105034   9.9318633  39.1209822  44.7759506  10.5024270
  24.4457891  35.9873280  18.7508339  23.9011359  36.7633088  18.8828613
  25.3237241  36.3344085  18.5927460  31.2345507  29.3184864  11.1289138
  31.3561419  28.3901510  11.3280025  30.9447550  29.3323550  10.2167453
  34.1036698  27.0039774  14.2655857  34.1258395  27.0679108  13.3107837
  34.5204757  26.1644283  14.4596364  44.4820322  36.7395034  12.3035080
  44.9251468  35.9902359  11.9054203  43.6046833  36.7305170  11.9208812
  39.6156104  43.2925376   7.7841678  40.3107008  43.9132068   8.0028993
  39.9579254  42.4420727   8.0594056  25.2323913  35.1143176  21.6438496
  24.4905649  35.2625812  22.2303126  24.9116657  35.3751442  20.7805245
  41.5147527  40.7425081   9.3129009  42.0398851  41.0812354   8.5878329
  41.4269879  39.8072096   9.1292144  33.1767575  44.6559155  21.4418886
  33.4854702  44.4108301  22.3141585  33.9743057  44.8605793  20.9537756
  33.1988187  46.8097064  13.6724262  32.7593178  46.3173443  14.3657119
  33.9496304  46.2670032  13.4316338  25.6780526  43.0008605  13.6748891
  26.5038546  42.7012377  13.2947534  25.3274578  42.2316228  14.1238679
  30.6462060  42.3535073  15.7446564  30.0242069  41.6905778  15.4448792
  31.3166926  42.3796205  15.0620212  23.8789131  40.9194932  14.6337824
  23.0421040  40.4917106  14.4521825  23.8512777  41.1127375  15.5708615
  41.2041433  41.3757985  24.6180207  40.4136976  41.3582124  24.0784707
  40.9674787  41.9146278  25.3729244  41.3239308  38.2250451  21.9312936
  41.3737313  38.0600458  22.8728459  41.2153231  37.3577710  21.5410817
  30.2075566  40.9038997   9.2205025  30.3563687  41.5874461   8.5671697
  31.0142010  40.8844087   9.7354480  38.6143070  34.2081379  23.2472242
  39.5152933  34.0687844  22.9556240  38.6891045  34.3735834  24.1870420
  32.9485875  31.5848234  22.0925429  32.0789185  31.8781800  21.8208017
  33.1845356  32.1688679  22.8132692  42.8257505  40.6447393  22.1754957
  42.5342313  41.0077373  23.0118418  42.2129636  39.9314401  21.9968289
  44.0253187  38.2100272  14.6957528  44.8600078  38.6490076  14.8595088
  44.1612316  37.7338926  13.8765773  41.0744693  35.7680007  20.6435015
  41.5498814  35.9607653  19.8353867  40.1510258  35.8239193  20.3978399
  27.9628199  36.9304174  10.2266094  27.7174241  36.0266504  10.4246304
  28.1324114  36.9321325   9.2845572  35.6524909  27.8027851  19.6090849
  36.1706853  28.5388878  19.2837338  35.2980042  28.1091844  20.4437608
  27.2323847  32.6632532   7.7252255  26.5393092  32.7376887   7.0692291
  26.9875599  31.8992876   8.2473772  35.9037503  24.2228133  15.1291746
  36.1839257  23.5551322  15.7552172  36.6888110  24.4157229  14.6166410
  33.7070972  43.3987127   6.6916772  33.1344939  44.0177314   6.2387244
  34.2803766  43.9486489   7.2256694  39.7746362  32.6445767  18.8763321
  40.7263785  32.7443865  18.8975545  39.6049812  31.8524036  19.3861405
  37.7960741  29.7301350  19.0622722  37.2010673  30.0106363  18.3669210
  37.5110438  30.2195251  19.8339463  36.9268232  43.6824277   7.8225354
  37.8598905  43.6169839   8.0258230  36.8391445  44.5180544   7.3639887
  42.2534440  35.8651887  17.9905621  42.2210760  34.9267888  18.1765304
  42.8635063  35.9435924  17.2571445  34.0917770  34.7347940   4.0332825
  35.0376875  34.6054148   4.1021243  33.7132015  33.9962602   4.5102253
  42.4028928  32.6562930  18.0363904  41.8867977  31.8721387  17.8493833
  43.2868877  32.3281647  18.2010423  40.0639655  26.4003946  13.9959716
  39.8664476  26.0919034  14.8803048  40.6739361  27.1265585  14.1257646
  48.0710989  36.9267894  17.1311657  48.8014378  36.6653182  17.6919361
  47.4617935  36.1896616  17.1713725  46.1526287  35.0675756  17.7286109
  45.4259450  34.9331721  17.1202600  45.7373573  35.3752585  18.5342827
  33.9756463  38.7865686  25.4933482  34.8959472  38.9644285  25.6873528
  33.9406046  37.8421731  25.3413181  32.2760688  32.6597916   3.9687710
  31.3692143  32.3631029   4.0450423  32.5536669  32.3627734   3.1021996
  23.1938628  33.9804280  14.4186756  22.8741412  33.1269588  14.1261130
  22.6472056  34.1952858  15.1744724  26.9718536  36.6966721  18.1356263
  27.1904545  37.6283829  18.1544297  27.3844309  36.3374695  18.9211067
  33.8922753  27.2034806  10.1231951  33.0823482  26.8581891  10.4987197
  34.5807170  26.8942350  10.7119563  35.8213302  26.2812853  11.7456248
  36.3744340  26.7008306  12.4046271  36.0583388  25.3548601  11.7879204
  31.0459472  29.5184852   4.1099689  31.9078636  29.8439750   4.3695506
  31.2309816  28.7316347   3.5972755  23.0626888  37.6007191  16.3879878
  22.3690359  37.1861144  15.8749832  23.8099879  37.6427728  15.7913297
  39.1992109  28.3913378  11.2534912  38.6190778  29.0498182  10.8712964
  38.9328041  27.5690723  10.8422330  37.6495675  27.7918436  13.4556232
  38.1495453  27.9034970  12.6470551  38.2931283  27.4879489  14.0957041
  31.7077671  35.6997065  26.3424073  31.2244753  36.4997425  26.5487962
  31.7938610  35.7105010  25.3891517  24.9763631  37.5325445  14.2645893
  24.9534319  37.6313132  13.3127776  25.2864267  38.3790596  14.5863059
  27.6351008  39.5901600  18.3792507  28.5894262  39.5585542  18.3122439
  27.4363532  39.1292224  19.1942733  28.2250391  38.1602716  20.9463305
  29.0443280  38.6546795  20.9698142  28.4987198  37.2434684  20.9180872
  37.9816987  30.5513468  10.3091260  37.0942842  30.8363119  10.0911455
  38.3970976  30.3907232   9.4618537  41.3331523  30.5759989  14.0245600
  42.1091913  31.0656442  14.2970216  40.6079657  31.0018044  14.4817469
  43.7704082  31.2887609  15.0819540  44.3648572  31.0483345  14.3712848
  43.8430665  30.5694739  15.7093076  25.9901237  45.1321220  15.3962705
  25.8555705  44.3721620  14.8300703  25.5733299  45.8562119  14.9291494
  37.9558010  36.0668004  10.5241550  37.8993212  36.5236556   9.6849183
  38.5086353  35.3058689  10.3464393  41.7662816  31.8557736  11.3491670
  41.5099751  31.4554372  12.1799878  41.1415684  32.5701530  11.2241809
  46.0775154  34.5953809  13.8562961  45.5174712  34.6646999  14.6294523
  45.4718658  34.4194794  13.1362458  29.1470363  46.0290537  15.6081148
  29.0302747  46.9735969  15.5059838  28.3262809  45.7264098  15.9966947
  39.0346898  40.7540672   6.4537740  39.8692502  40.3221871   6.2715215
  38.8731241  40.5822686   7.3814635  38.6892790  37.2572786   7.8194080
  38.6341594  37.0917057   6.8782524  38.0638845  37.9648818   7.9756269
  23.4785305  32.4940850  21.6455502  24.1244168  31.9839804  22.1342727
  23.2702456  33.2309532  22.2198927  36.0038697  39.5621697  27.1447642
  36.8729857  39.7362350  26.7834277  35.5245448  40.3816114  27.0223372
  31.9988915  26.7580895   7.3979398  31.9867585  27.7022734   7.5547669
  32.8912337  26.5751040   7.1038859  30.1724877  46.6818798  18.8237076
  31.0752124  46.7142409  19.1403571  29.9462247  45.7519249  18.8383412
  31.9278479  45.4349785  15.4847155  30.9774110  45.4351647  15.3711527
  32.2310965  44.6882520  14.9683189  35.8141035  23.3523671  11.6525335
  35.0473431  22.7982158  11.7982017  36.2251740  23.4245540  12.5139486
  47.6631173  51.2710323  16.5492917  48.3009583  51.1517071  15.8456257
  47.5452016  52.2191167  16.6080869  44.4720879  51.2237751  16.4854442
  44.1339391  51.1078816  15.5974977  45.3410647  50.8228917  16.4655448
  44.9540662  52.3772603  22.4440647  44.9429303  51.9825401  21.5721151
  45.1161301  51.6438676  23.0374419  37.8772127  54.5724419  15.3135553
  38.6693419  54.2315244  14.8981852  38.1168777  54.6819395  16.2337706
  41.6747923  55.1609715  21.3919831  41.3837789  56.0655346  21.2766498
  42.3104907  55.2026243  22.1063901  42.6004130  52.5386564  17.9821191
  43.1967702  52.3142586  17.2678154  42.6579102  51.7971309  18.5846639
  50.1406289  42.6458585  18.9873712  49.8089613  43.5153995  18.7634927
  49.5451902  42.3294869  19.6667743  40.0850290  51.2984927  14.4206329
  39.1600786  51.1661141  14.6284021  40.3334703  52.0779147  14.9176272
  50.0334952  47.3653671  16.0667062  49.1251829  47.2969079  15.7725823
  49.9822548  47.8425616  16.8948888  37.4459101  50.9418201  15.2550118
  37.5751482  51.1952680  16.1689530  36.7656552  51.5345909  14.9354773
  44.1075818  48.7843316  24.0101960  43.3309152  49.3437236  24.0004824
  44.7466381  49.2700099  24.5316830  51.8996598  45.5670109  17.8444936
  51.2570979  45.8602642  17.1984731  51.3951527  45.4523029  18.6498133
  42.3622190  51.5928770  23.5719927  43.1036874  52.1313814  23.2954750
  41.6559176  52.2195058  23.7291478  47.8377530  53.7357910  22.1692088
  48.2460886  53.2940321  21.4246720  47.1154791  53.1610538  22.4226281
  44.1908600  48.6730517  19.5425645  45.0369795  49.0969930  19.6860294
  44.1307237  48.0164141  20.2364208  47.3408045  46.3334885  21.2006819
  47.0968977  47.0876946  20.6641094  47.6167976  46.7120233  22.0354066
  46.8972737  45.4891318  16.7820656  46.0357216  45.7872572  17.0737394
  46.9235171  45.7061717  15.8501689  40.6058387  53.5804990  16.1274225
  41.1759744  54.0092259  15.4891710  41.1966499  53.2987575  16.8258411
  41.0983554  48.7468418  24.3735237  40.4682214  49.4284699  24.6070633
  40.9919642  48.6351499  23.4288375  36.3928526  48.4140214  15.3001161
  35.6027580  48.6697742  14.8241271  36.8839774  49.2288552  15.4053201
  38.3443272  48.7784793  12.2584637  37.5474435  48.8903487  12.7768133
  38.1168864  49.1171445  11.3925528  44.1748939  55.3029496  20.2067152
  44.2393372  55.7649904  21.0425324  43.4659863  54.6726861  20.3349462
  34.6766229  48.6670704  17.7316151  34.9274268  49.5517714  17.9973727
  35.2125778  48.4875306  16.9591243  40.3764297  43.0489184  26.7360488
  39.9831242  42.4955382  27.4108132  41.1930437  43.3599762  27.1267005
  43.2932258  44.4647063  24.3280744  44.0341971  45.0654216  24.2485207
  43.5250180  43.7224701  23.7698787  38.4373596  49.6503430  22.6058974
  38.3227111  48.7488687  22.9066073  37.5818113  49.8967127  22.2543790
  40.2752554  59.1216972  18.7307153  40.8259980  58.9934035  17.9584147
  39.4364030  59.4211861  18.3802046  44.0719726  55.3868100  23.0751384
  44.6048062  54.6256388  22.8450692  43.5433807  55.0941752  23.8175539
  47.2389421  40.4928166  18.6045026  46.8953690  41.3829807  18.5284136
  47.6068383  40.3029823  17.7414611  44.7886814  45.3286478  12.1702699
  43.9328411  44.9393328  11.9908338  45.2013766  45.4078438  11.3102485
  46.3185961  42.8632821  16.5694259  45.8150756  42.8262956  15.7562064
  46.6116568  43.7725564  16.6290916  42.5628847  42.9471551  15.5760441
  43.4281844  42.7514359  15.2166330  42.6306356  42.7181902  16.5029798
  40.1691166  45.1773759  12.9476808  40.7434918  44.9548940  12.2150001
  40.7562148  45.2462453  13.7005409  42.4713834  42.0515007  11.6751877
  41.8178246  41.7364025  11.0508492  42.4294308  41.4290748  12.4011700
  45.7051574  48.5396941  15.9999525  44.7874135  48.7611888  15.8421213
  46.1211718  48.6143251  15.1411232  49.0377086  39.7521725  13.7062764
  49.3435963  38.8919088  13.4188679  49.7629691  40.3439345  13.5061757
  35.3301442  50.1552411  12.0944361  35.1325842  49.5621772  11.3695428
  34.7748106  49.8504622  12.8120300  43.3098166  50.0475518  14.2138955
  43.3646776  49.0949354  14.1381431  42.4989368  50.2034957  14.6980253
  41.2490526  48.6652578  11.9729333  40.4358391  48.9646748  12.3794526
  41.7449520  48.2708266  12.6903816  46.8464738  49.1294402  20.8044227
  47.2014125  49.3565875  21.6638693  47.4936869  49.4612779  20.1821483
  40.7404601  46.2370933  17.5890568  41.3803980  46.0959692  16.8913532
  39.9082131  45.9505447  17.2129170  37.7433217  46.2071258  12.3663555
  38.0040034  47.1216591  12.2572716  38.5650389  45.7395701  12.5160168
  39.2158142  47.6209015  19.5362380  39.8881196  47.4126378  18.8875029
  38.3887929  47.4231101  19.0967612  45.1183714  44.2470956  21.5528041
  44.4711629  44.9460906  21.4592517  45.8884730  44.6807100  21.9204289
  45.2947849  52.0851721  19.6124860  46.2239909  52.2362881  19.4393828
  44.8738879  52.1735742  18.7573507  44.0936180  56.1102386  17.3823398
  43.9547266  55.7421170  18.2549336  43.3050777  56.6250025  17.2107356
  39.6185640  50.8951618  20.2964817  39.4805438  50.1631857  20.8976356
  40.5290563  50.8060518  20.0149005  42.2467940  50.6071578  19.7848497
  42.9567559  49.9664770  19.7435115  42.2037248  50.8584473  20.7074677
  40.9596874  47.5936796  21.6044136  40.4234231  47.1427534  22.2565732
  40.3713583  47.7282704  20.8614600  31.8901273  51.8402607  14.2612107
  32.5772313  51.5264337  13.6733122  31.7349402  52.7443971  13.9879358
  36.6935995  46.7292803  18.6897131  36.6094184  46.1218473  17.9547540
  35.8718702  47.2201822  18.6906627  46.8659709  45.2146367  14.0567326
  47.3628409  44.4616329  13.7368396  46.0946691  45.2510683  13.4910535
  43.4494678  47.3563750  13.7839010  43.0792466  46.8034790  14.4719916
  43.9453771  46.7521883  13.2314010  49.3078704  42.1815960  16.2046684
  48.3941784  42.4120187  16.3728891  49.7371806  42.2654404  17.0560717
  49.0785163  50.3705852  18.7046578  48.4256613  50.6181760  18.0499031
  49.4565543  49.5569990  18.3709056  45.1272736  51.1125663  25.1912616
  44.4513373  51.0119793  25.8614991  45.9500370  50.9564877  25.6548613
  36.8751595  57.3497600  17.8125131  37.4605032  56.6041288  17.9453035
  36.6776433  57.6601557  18.6961795  31.4669249  49.9203200  16.5329574
  31.5053349  49.3866791  17.3266692  30.9609542  49.3938406  15.9140551
  38.8460012  44.7667741  20.0292116  38.9101338  45.6282571  19.6169514
  38.7827132  44.1541742  19.2964475  38.3212284  46.8390873  23.6765151
  38.9484323  46.4567950  24.2902675  37.4640203  46.6205075  24.0420843
  35.0977827  48.6467302   9.6083505  35.3931268  47.7377981   9.5550559
  34.1965863  48.6255042   9.2864508  38.6272074  46.7223299  15.5911054
  37.9058660  47.3359266  15.4518527  39.4165330  47.2581064  15.5127700
  41.4298388  44.0577725  21.8651706  41.9532789  44.3040022  22.6278015
  41.2110721  44.8897760  21.4454843  36.8265669  46.3281400   9.7322830
  36.4978375  45.4478779   9.5497936  37.1805039  46.2729069  10.6199220
  42.6350933  44.9991420  19.5501376  42.2947753  44.1999233  19.9522056
  41.9289939  45.2993131  18.9778209  43.2867404  42.0840733  18.0028699
  44.1093474  41.6101211  17.8807590  43.5305468  42.8631217  18.5027386
  40.8105983  48.7759853  15.8120678  40.6650564  49.0900157  16.7044959
  40.3331187  49.3944754  15.2591576  42.6702366  45.7662401  15.8601567
  42.6563935  44.8703495  15.5233865  43.3874794  45.7733065  16.4939853
  44.5228497  46.1999742  17.9054695  44.2646275  47.1216812  17.9039025
  43.9913537  45.8030176  18.5955159  35.2851645  51.3165198  18.7508339
  34.7405113  52.0925006  18.8828613  36.1630995  51.6636002  18.5927460
  42.0739262  44.6476782  11.1289138  42.1955173  43.7193428  11.3280025
  41.7841304  44.6615468  10.2167453  44.9430452  42.3331692  14.2655857
  44.9652149  42.3971025  13.3107837  45.3598511  41.4936201  14.4596364
  36.0717667  50.4435094  21.6438496  35.3299403  50.5917729  22.2303126
  35.7510411  50.7043360  20.7805245  34.7182886  56.2486849  14.6337824
  33.8814794  55.8209024  14.4521825  34.6906531  56.4419293  15.5708615
  41.5580342  46.1608779  25.3379070  41.6068497  47.0370902  24.9556840
  42.1002856  45.6186172  24.7650713  49.4536825  49.5373297  23.2472242
  50.3546687  49.3979762  22.9556240  49.5284799  49.7027752  24.1870420
  43.7879630  46.9140152  22.0925429  42.9182939  47.2073718  21.8208017
  44.0239110  47.4980597  22.8132692  46.4918664  43.1319768  19.6090849
  47.0100608  43.8680795  19.2837338  46.1373797  43.4383762  20.4437608
  46.7431258  39.5520051  15.1291746  47.0233012  38.8843240  15.7552172
  47.5281865  39.7449147  14.6166410  50.6140116  47.9737685  18.8763321
  51.5657539  48.0735783  18.8975545  50.4443567  47.1815954  19.3861405
  48.6354496  45.0593268  19.0622722  48.0404428  45.3398281  18.3669210
  48.3504192  45.5487169  19.8339463  53.2422683  47.9854848  18.0363904
  52.7261731  47.2013305  17.8493833  54.1262631  47.6573565  18.2010423
  50.9033410  41.7295864  13.9959716  50.7058231  41.4210952  14.8803048
  51.5133115  42.4557503  14.1257646  44.8150218  54.1157604  25.4933482
  45.7353227  54.2936203  25.6873528  44.7799801  53.1713649  25.3413181
  34.0332383  49.3096197  14.4186756  33.7135167  48.4561506  14.1261130
  33.4865811  49.5244776  15.1744724  37.8112290  52.0258638  18.1356263
  38.0298300  52.9575746  18.1544297  38.2238064  51.6666613  18.9211067
  44.7316508  42.5326724  10.1231951  43.9217236  42.1873809  10.4987197
  45.4200925  42.2234267  10.7119563  46.6607056  41.6104771  11.7456248
  47.2138095  42.0300224  12.4046271  46.8977142  40.6840519  11.7879204
  42.6840155  47.5991844  27.5259012  42.5836882  48.5486201  27.4571103
  42.4661697  47.2710083  26.6535082  33.9020643  52.9299109  16.3879878
  33.2084114  52.5153062  15.8749832  34.6493634  52.9719645  15.7913297
  48.4889430  43.1210353  13.4556232  48.9889208  43.2326888  12.6470551
  49.1325038  42.8171406  14.0957041  42.5471425  51.0288983  26.3424073
  42.0638507  51.8289343  26.5487962  42.6332364  51.0396928  25.3891517
  35.8157385  52.8617363  14.2645893  35.7928073  52.9605050  13.3127776
  36.1258022  53.7082513  14.5863059  38.4744763  54.9193518  18.3792507
  39.4288016  54.8877460  18.3122439  38.2757286  54.4584141  19.1942733
  39.0644145  53.4894634  20.9463305  39.8837034  53.9838712  20.9698142
  39.3380953  52.5726602  20.9180872  34.3179059  47.8232768  21.6455502
  34.9637923  47.3131722  22.1342727  34.1096210  48.5601449  22.2198927
  46.6534789  38.6815589  11.6525335  45.8867185  38.1274076  11.7982017
  47.0645494  38.7537458  12.5139486  38.6576550  44.9700385  25.7430516
  39.5208012  44.6137190  25.9533841  38.0841961  44.6314280  26.4305920
  28.5567211   3.8917218   9.4300382  28.4979757   3.2076438   8.7630965
  28.9586730   4.6336208   8.9781008  27.0418885   3.5932136  12.0064193
  27.5858789   4.2062094  11.5119147  26.4605730   4.1511714  12.5231206
  30.3647679   3.0528190  11.3425514  29.5743223   3.0352328  10.8030013
  30.1281034   3.5916483  12.0974550  31.9863751   2.3217597   8.9000264
  31.6948560   2.6847578   9.7363725  31.3735883   1.6084606   8.7213596
  25.1644944   1.2391902  13.8692949  26.0336103   1.4132555  13.5079584
  24.6851695   2.0586319  13.7468678  36.8237419  12.9480528   3.2738224
  37.4615829  12.8287276   2.5701564  36.7058262  13.8961372   3.3326176
  33.6327126  12.9007956   3.2099748  33.2945637  12.7849021   2.3220283
  34.5016894  12.4999121   3.1900755  34.1146909  14.0542808   9.1685954
  34.1035550  13.6595606   8.2966458  34.2767548  13.3208881   9.7619725
  30.8354170  16.8379920   8.1165138  30.5444036  17.7425551   8.0011804
  31.4711154  16.8796448   8.8309207  31.7610377  14.2156768   4.7066498
  32.3573949  13.9912791   3.9923460  31.8185348  13.4741514   5.3091945
  39.3012535   4.3228789   5.7119019  38.9695860   5.1924200   5.4880234
  38.7058149   4.0065073   6.3913049  35.7944055  16.5241335   5.1114932
  35.4944778  17.4266374   5.0030739  35.4495114  16.2573519   5.9636084
  39.1941199   9.0423876   2.7912369  38.2858076   8.9739284   2.4971130
  39.1428795   9.5195821   3.6194194  30.7764835  23.2885656  -1.9214101
  30.6988864  24.2393481  -1.8425620  30.1726478  22.9431528  -1.2639174
  33.2682065  10.4613521  10.7347266  32.4915399  11.0207441  10.7250131
  33.9072628  10.9470304  11.2562136  31.5228437  13.2698975  10.2965233
  32.2643121  13.8084019  10.0200057  30.8165422  13.8965263  10.4536785
  36.9983776  15.4128115   8.8937395  37.4067133  14.9710526   8.1492027
  36.2761038  14.8380743   9.1471588  33.3514847  10.3500722   6.2670952
  34.1976042  10.7740135   6.4105601  33.2913484   9.6934346   6.9609515
  37.3212591  15.9729306   2.6489684  36.6921454  16.1375020   1.9465751
  36.9338253  16.3870915   3.4200648  41.2001823  16.9083744   0.0034047
  40.5152861  17.2882645  -0.5468919  41.2845672  17.5179070   0.7365995
  36.5014292   8.0105090   7.9252125  36.2575224   8.7647151   7.3886401
  36.7774222   8.3890438   8.7599372  38.4552755  14.5543703   6.6029391
  38.6669650  15.1975462   5.9263772  38.4082503  13.7206019   6.1351321
  29.7664634  15.2575195   2.8519532  30.3365991  15.6862464   2.2137016
  30.3572746  14.9757780   3.5503718  30.2589801  10.4238623  11.0980543
  29.6288461  11.1054904  11.3315940  30.1525888  10.3121704  10.1533681
  39.5698583  17.4315658   4.7751748  40.3916026  17.0295845   4.4934430
  39.5660985  17.3283892   5.7267864  33.3355186  16.9799701   6.9312459
  33.3999619  17.4420108   7.7670631  32.6266110  16.3497066   7.0594769
  29.5370543   4.7259389  13.4605794  29.1437489   4.1725587  14.1353438
  30.3536684   5.0369967  13.8512312  32.4538504   6.1417268  11.0526051
  33.1948218   6.7424421  10.9730513  32.6856427   5.3994905  10.4944093
  27.5979842  11.3273635   9.3304280  27.4833357  10.4258892   9.6311379
  26.7424360  11.5737332   8.9789097  34.6771680  19.2691375  10.9291781
  34.2335534  18.4827754  10.6112686  35.3388894  19.4570526  10.2635672
  29.4358801  20.7987177   5.4552460  29.9866226  20.6704240   4.6829454
  28.5970277  21.0982066   5.1047352  36.7752918  19.5494175   8.9573182
  36.7571393  20.3703056   8.4653452  37.6972838  19.4248250   9.1823324
  33.2325972  17.0638305   9.7996691  33.7654309  16.3026593   9.5695999
  32.7040053  16.7711956  10.5420845  39.5771531  14.3873318   2.4282549
  38.9195205  15.0772579   2.5162678  40.3811930  14.7769750   2.7716535
  34.8657821  10.2167146   2.7244831  33.9480382  10.4382093   2.5666519
  35.2817964  10.2913456   1.8656539  39.1538786  17.7223692  -1.3934367
  38.7001113  16.8814602  -1.3369176  38.5232753  18.3585090  -1.0559586
  37.5971725  19.5600188  -0.4584548  37.8894700  20.1205246  -1.1772183
  38.1070346  19.8528749   0.2968611  32.5605350  20.3380540   0.6308905
  32.5181529  20.5641386  -0.2982563  33.4768049  20.1043914   0.7794706
  36.0070984  10.8064607   7.5289534  36.3620372  11.0336080   8.3884000
  36.6543115  11.1382984   6.9066789  41.7638101  15.9959570   3.2450135
  42.1974607  15.9034859   4.0933189  42.4769682  15.9717070   2.6070151
  35.4965996  19.5961664   4.7783235  35.5503018  20.1652600   5.5460951
  34.6280777  19.7663549   4.4137272  28.3764389   9.2979220   6.2607686
  29.0487443   9.0896582   5.6120335  27.5494176   9.1001306   5.8212919
  42.6253650  16.0383271   5.7783020  42.8189540  16.9429081   6.0242295
  42.5254269  15.5790690   6.6121605  34.2789961   5.9241161   8.2773347
  33.6317876   6.6231111   8.1837824  35.0490977   6.3577305   8.6449595
  37.6868759  16.1890013  11.3523901  37.5354265  15.9600565  10.4353984
  37.6773439  17.1460615  11.3655246  34.4554095  13.7621926   6.3370167
  35.3846155  13.9133086   6.1639134  34.0345125  13.8505947   5.4818813
  33.2542427  17.7872591   4.1068705  33.1153513  17.4191375   4.9794643
  32.4657023  18.3020230   3.9352662  33.8490579  22.8881687  -4.5505759
  34.0242335  22.4169730  -3.7360136  33.1623367  23.5147453  -4.3224498
  34.8047642  17.1654193   1.4957542  34.4697475  17.1254963   2.3915192
  34.3051588  16.4998909   1.0227953  28.7791886  12.5721823   7.0210124
  28.6411684  11.8402062   7.6221663  29.6896810  12.4830723   6.7394311
  31.4074187  12.2841783   6.5093803  32.1173806  11.6434975   6.4680422
  31.3643495  12.5354677   7.4319984  39.3960966  19.2209136   9.4300382
  39.3373512  18.5368356   8.7630965  39.7980484  19.9628126   8.9781008
  30.1203121   9.2707000   8.3289443  29.5840478   8.8197739   8.9811039
  29.5319829   9.4052909   7.5859907  28.4151664  26.0371050   2.2234101
  28.6548263  26.6689574   2.9013120  27.5720861  25.6859090   2.5099461
  39.3978373  17.1848720   7.6614362  38.5105152  16.8474642   7.7840761
  39.9676924  16.4531751   7.8983127  32.9279526  21.8450172   4.6275605
  32.8549698  22.6505144   5.1394910  32.4856919  22.0442138   3.8023627
  32.7169306  21.0821942  -1.8621573  31.9336828  21.6243622  -1.7683349
  33.4162051  21.5995922  -1.4627332  35.3878210  21.7437006   6.7833764
  36.1006182  22.3784471   6.7109665  34.8968239  21.8400872   5.9673766
  30.4390123  19.4931450   7.6039335  31.1399583  20.1267933   7.7568729
  29.9685238  19.8346181   6.8434974  38.2391409  12.0476057   5.4291885
  37.5862860  12.2951965   4.7744338  38.6171789  11.2340195   5.0954362
  35.1998583  22.0835750  -0.4679945  35.3820978  21.2657406  -0.0052192
  36.0231569  22.3003443  -0.9055055  35.5340749  21.0103935  -3.2064896
  36.0628515  20.4996390  -3.8194734  35.7968968  20.6946466  -2.3419363
  34.2878982  12.7895868  11.9157922  33.6119619  12.6889998  12.5860297
  35.1106616  12.6335082  12.3793919  26.0357841  19.0267805   4.5370437
  26.6211278  18.2811493   4.6698342  25.8382680  19.3371761   5.4207101
  28.8896497  22.0619052  -0.4467120  28.2206872  22.5465180  -0.9303080
  28.7509366  22.3088273   0.4676258  33.0301765  24.0962796   6.1515538
  33.5820073  24.2594417   6.9164623  33.3707959  24.6867234   5.4795563
  27.4818531   8.5161078  10.4010457  28.1090570   8.1338155  11.0147981
  26.6246450   8.2975280  10.7666150  37.8812640  18.9224053  12.0064193
  38.4252544  19.5354011  11.5119147  37.2999484  19.4803632  12.5231206
  36.1670153  22.0444771   3.1379220  36.0421292  21.2434511   2.6290166
  36.8249244  22.5390965   2.6493190  38.2305061  19.8453791   4.7658770
  37.2835396  19.7259142   4.6937097  38.5787834  18.9576289   4.8485032
  30.5904634   5.7347930   8.5897012  31.1139036   5.9810227   9.3523322
  30.3716968   6.5667965   8.1700150  35.2351494  19.6406508   0.9663123
  35.0876457  18.7123215   1.1470693  36.0604988  19.6626598   0.4820198
  38.8385616  20.4635066   2.0527995  39.7632164  20.2577928   1.9152447
  38.6700919  20.2151467   2.9617337  31.7957179   6.6761625   6.2746683
  31.4554000   5.8769438   6.6767363  31.0896186   6.9763336   5.7023516
  33.6834744   7.8769947   4.6300001  33.4252521   8.7987017   4.6284332
  33.1519784   7.4800381   5.3200466  38.6280932  20.9820734  -2.5909913
  38.8017810  20.4167156  -3.3436061  39.1209824  21.7821629  -2.7730423
  24.4457892  12.9935403   5.4753646  23.9011360  13.7695211   5.6073920
  25.3237242  13.3406207   5.3172767  25.2323914  12.1205299   8.3683803
  24.4905650  12.2687934   8.9548433  24.9116658  12.3813565   7.5050552
  33.1767577  21.6621277   8.1664193  33.4854703  21.4170424   9.0386892
  33.9743059  21.8667916   7.6783063  33.1988189  23.8159187   0.3969569
  32.7593179  23.3235566   1.0902426  33.9496306  23.2732155   0.1561644
  25.6780528  20.0070728   0.3994197  26.5038548  19.7074500   0.0192841
  25.3274580  19.2378350   0.8483986  30.6462061  19.3597196   2.4691871
  30.0242070  18.6967901   2.1694099  31.3166928  19.3858328   1.7865519
  30.7186588   7.8378984  12.0624377  30.7674744   8.7141107  11.6802146
  31.2609103   7.2956377  11.4896020  41.2041434  18.3820107  11.3425514
  40.4136978  18.3644246  10.8030013  40.9674789  18.9208401  12.0974550
  41.3239309  15.2312574   8.6558242  41.3737314  15.0662581   9.5973765
  41.2153232  14.3639833   8.2656123  38.6143071  11.2143502   9.9717549
  39.5152934  11.0749967   9.6801547  38.6891046  11.3797956  10.9115727
  32.9485877   8.5910356   8.8170735  32.0789186   8.8843922   8.5453324
  33.1845357   9.1750801   9.5377999  42.8257506  17.6509515   8.9000264
  42.5342314  18.0139496   9.7363725  42.2129637  16.9376523   8.7213596
  41.0744694  12.7742130   7.3680322  41.5498816  12.9669776   6.5599173
  40.1510259  12.8301316   7.1223706  35.6524911   4.8089973   6.3336156
  36.1706854   5.5451000   6.0082644  35.2980043   5.1153967   7.1682915
  39.7746363   9.6507890   5.6008628  40.7263786   9.7505988   5.6220852
  39.6049814   8.8586158   6.1106712  37.7960743   6.7363473   5.7868028
  37.2010675   7.0168486   5.0914517  37.5110439   7.2257374   6.5584770
  42.2534441  12.8714010   4.7150927  42.2210761  11.9330010   4.9010611
  42.8635065  12.9498046   3.9816752  33.9756464  15.7927809  12.2178788
  34.8959474  15.9706408  12.4118835  33.9406047  14.8483854  12.0658487
  26.9718537  13.7028843   4.8601569  27.1904547  14.6345951   4.8789603
  27.3844311  13.3436818   5.6456373  31.8446402   9.2762049  14.2504318
  31.7443129  10.2256406  14.1816409  31.6267944   8.9480288  13.3780388
  31.7077672  12.7059188  13.0669380  31.2244754  13.5059548  13.2733269
  31.7938611  12.7167133  12.1136824  27.6351010  16.5963723   5.1037814
  28.5894263  16.5647665   5.0367745  27.4363533  16.1354346   5.9188040
  28.2250392  15.1664839   7.6708611  29.0443281  15.6608917   7.6943449
  28.4987200  14.2496807   7.6426179  25.9901238  22.1383342   2.1208012
  25.8555706  21.3783743   1.5546010  25.5733301  22.8624242   1.6536800
  29.1470364  23.0352659   2.3326454  29.0302748  23.9798092   2.2305144
  28.3262811  22.7326221   2.7212253  23.4785306   9.5002973   8.3700808
  24.1244170   8.9901927   8.8588034  23.2702457  10.2371654   8.9444234
  36.0038698  16.5683820  13.8692949  36.8729858  16.7424472  13.5079584
  35.5245450  17.3878237  13.7468678  30.1724878  23.6880921   5.5482383
  31.0752125  23.7204531   5.8648878  29.9462249  22.7581372   5.5628718
  31.9278480  22.4411908   2.2092461  30.9774111  22.4413769   2.0956834
  32.2310967  21.6944642   1.6928496  27.8182797   6.6470590  12.4675823
  28.6814259   6.2907394  12.6779147  27.2448208   6.3084484  13.1551227
  47.6631174  28.2772446   3.2738224  48.3009584  28.1579193   2.5701564
  47.5452017  29.2253290   3.3326176  44.4720880  28.2299874   3.2099748
  44.1339392  28.1140939   2.3220283  45.3410648  27.8291039   3.1900755
  44.9540663  29.3834726   9.1685954  44.9429304  28.9887524   8.2966458
  45.1161303  28.6500798   9.7619725  37.8772128  31.5786542   2.0380860
  38.6693420  31.2377367   1.6227159  38.1168778  31.6881517   2.9583013
  41.6747924  32.1671838   8.1165138  41.3837790  33.0717468   8.0011804
  42.3104909  32.2088365   8.8309207  42.6004131  29.5448686   4.7066498
  43.1967703  29.3204709   3.9923460  42.6579103  28.8033432   5.3091945
  50.1406290  19.6520707   5.7119019  49.8089615  20.5216118   5.4880234
  49.5451903  19.3356991   6.3913049  46.6337809  31.8533253   5.1114932
  46.3338533  32.7558292   5.0030739  46.2888869  31.5865436   5.9636084
  40.0850291  28.3047050   1.1451636  39.1600787  28.1723264   1.3529328
  40.3334704  29.0841269   1.6421578  50.0334953  24.3715793   2.7912369
  49.1251831  24.3031202   2.4971130  49.9822549  24.8487738   3.6194194
  37.4459102  27.9480324   1.9795425  37.5751483  28.2014802   2.8934837
  36.7656553  28.5408032   1.6600080  44.1075819  25.7905439  10.7347266
  43.3309153  26.3499359  10.7250131  44.7466382  26.2762222  11.2562136
  42.3622191  28.5990892  10.2965233  43.1036876  29.1375936  10.0200057
  41.6559177  29.2257181  10.4536785  47.8377531  30.7420033   8.8937395
  48.2460887  30.3002443   8.1492027  47.1154792  30.1672660   9.1471588
  44.1908601  25.6792639   6.2670952  45.0369796  26.1032053   6.4105601
  44.1307239  25.0226264   6.9609515  47.3408046  23.3397008   7.9252125
  47.0968978  24.0939068   7.3886401  47.6167977  23.7182355   8.7599372
  49.2946509  29.8835620   6.6029391  49.5063404  30.5267380   5.9263772
  49.2476257  29.0497937   6.1351321  46.8972738  22.4953441   3.5065963
  46.0357217  22.7934694   3.7982701  46.9235173  22.7123840   2.5746996
  40.6058389  30.5867113   2.8519532  41.1759746  31.0154381   2.2137016
  41.1966500  30.3049698   3.5503718  41.0983555  25.7530540  11.0980543
  40.4682216  26.4346821  11.3315940  40.9919643  25.6413622  10.1533681
  36.3928528  25.4202336   2.0246467  35.6027582  25.6759865   1.5486578
  36.8839775  26.2350674   2.1298508  38.3443273  25.7846916  -1.0170056
  37.5474436  25.8965610  -0.4986560  38.1168865  26.1233568  -1.8829165
  44.1748941  32.3091619   6.9312459  44.2393373  32.7712026   7.7670631
  43.4659864  31.6788984   7.0594769  34.6766231  25.6732827   4.4561458
  34.9274269  26.5579837   4.7219034  35.2125779  25.4937428   3.6836550
  40.3764298  20.0551306  13.4605794  39.9831243  19.5017505  14.1353438
  41.1930438  20.3661885  13.8512312  43.2932259  21.4709185  11.0526051
  44.0341972  22.0716338  10.9730513  43.5250182  20.7286823  10.4944093
  38.4373597  26.6565553   9.3304280  38.3227112  25.7550810   9.6311379
  37.5818115  26.9029249   8.9789097  45.5165435  34.5983293  10.9291781
  45.0729289  33.8119671  10.6112686  46.1782648  34.7862443  10.2635672
  40.2752556  36.1279095   5.4552460  40.8259981  35.9996158   4.6829454
  39.4364032  36.4273984   5.1047352  47.6146673  34.8786093   8.9573182
  47.5965148  35.6994974   8.4653452  48.5366593  34.7540168   9.1823324
  44.0719727  32.3930222   9.7996691  44.6048064  31.6318511   9.5695999
  43.5433808  32.1003874  10.5420845  46.3185962  19.8694943   3.2939566
  45.8150758  19.8325079   2.4807371  46.6116569  20.7787686   3.3536222
  42.5628848  19.9533673   2.3005747  43.4281845  19.7576482   1.9411637
  42.6306357  19.7244025   3.2275104  40.1691167  22.1835881  -0.3277886
  40.7434919  21.9611063  -1.0604693  40.7562150  22.2524576   0.4250716
  45.7051575  25.5459064   2.7244831  44.7874137  25.7674011   2.5666519
  46.1211719  25.6205374   1.8656539  35.3301443  27.1614534  -1.1810332
  35.1325843  26.5683895  -1.9059265  34.7748107  26.8566744  -0.4634393
  43.3098167  27.0537641   0.9384261  43.3646777  26.1011477   0.8626738
  42.4989369  27.2097080   1.4225560  41.2490527  25.6714700  -1.3025360
  40.4358393  25.9708871  -0.8960168  41.7449521  25.2770389  -0.5850878
  46.8464739  26.1356525   7.5289534  47.2014126  26.3627998   8.3884000
  47.4936870  26.4674902   6.9066789  40.7404602  23.2433056   4.3135875
  41.3803981  23.1021815   3.6158838  39.9082132  22.9567569   3.9374477
  37.7433218  23.2133381  -0.9091138  38.0040036  24.1278714  -1.0181978
  38.5650391  22.7457823  -0.7594525  39.2158144  24.6271138   6.2607686
  39.8881197  24.4188500   5.6120335  38.3887930  24.4293224   5.8212919
  45.1183716  21.2533079   8.2773347  44.4711631  21.9523029   8.1837824
  45.8884731  21.6869223   8.6449595  48.5262514  31.5181931  11.3523901
  48.3748020  31.2892483  10.4353984  48.5167193  32.4752532  11.3655246
  45.2947850  29.0913844   6.3370167  46.2239910  29.2425003   6.1639134
  44.8738880  29.1797865   5.4818813  44.0936182  33.1164508   4.1068705
  43.9547267  32.7483293   4.9794643  43.3050778  33.6312148   3.9352662
  39.6185641  27.9013741   7.0210124  39.4805439  27.1693980   7.6221663
  40.5290564  27.8122641   6.7394311  42.2467942  27.6133700   6.5093803
  42.9567560  26.9726892   6.4680422  42.2037250  27.8646595   7.4319984
  50.2354720  34.5501054   9.4300382  50.1767266  33.8660274   8.7630965
  50.6374239  35.2920044   8.9781008  40.9596875  24.5998918   8.3289443
  40.4234233  24.1489657   8.9811039  40.3713584  24.7344827   7.5859907
  50.2372127  32.5140638   7.6614362  49.3498906  32.1766559   7.7840761
  50.8070679  31.7823669   7.8983127  31.8901275  28.8464729   0.9857413
  32.5772314  28.5326459   0.3978429  31.7349403  29.7506094   0.7124665
  36.6935997  23.7354926   5.4142437  36.6094185  23.1280595   4.6792847
  35.8718703  24.2263944   5.4151933  43.4494679  24.3625872   0.5084317
  43.0792467  23.8096913   1.1965222  43.9453772  23.7584006  -0.0440683
  41.2783878  34.8223367   7.6039335  41.9793337  35.4559850   7.7568729
  40.8078993  35.1638099   6.8434974  49.0785164  27.3767975   5.4291885
  48.4256614  27.6243882   4.7744338  49.4565544  26.5632113   5.0954362
  45.1272737  28.1187786  11.9157922  44.4513374  28.0181915  12.5860297
  45.9500371  27.9627000  12.3793919  36.8751596  34.3559722   4.5370437
  37.4605033  33.6103410   4.6698342  36.6776434  34.6663679   5.4207101
  31.4669251  26.9265323   3.2574881  31.5053350  26.3928913   4.0511999
  30.9609544  26.4000528   2.6385858  38.8460013  21.7729863   6.7537423
  38.9101339  22.6344694   6.3414821  38.7827133  21.1603865   6.0209781
  38.3212286  23.8452996  10.4010457  38.9484324  23.4630073  11.0147981
  37.4640204  23.6267198  10.7666150  48.7206394  34.2515971  12.0064193
  49.2646298  34.8645929  11.5119147  48.1393239  34.8095549  12.5231206
  35.0977828  25.6529425  -3.6671188  35.3931269  24.7440103  -3.7204134
  34.1965864  25.6317164  -3.9890186  38.6272075  23.7285421   2.3156361
  37.9058661  24.3421389   2.1763834  39.4165331  24.2643186   2.2373007
  41.4298389  21.0639848   8.5897012  41.9532791  21.3102144   9.3523322
  41.2110722  21.8959883   8.1700150  36.8265670  23.3343522  -3.5431863
  36.4978376  22.4540901  -3.7256757  37.1805041  23.2791191  -2.6555474
  42.6350934  22.0053543   6.2746683  42.2947754  21.2061356   6.6767363
  41.9289940  22.3055254   5.7023516  43.2867406  19.0902855   4.7274006
  44.1093475  18.6163334   4.6052896  43.5305469  19.8693339   5.2272692
  40.8105984  25.7821976   2.5365984  40.6650565  26.0962279   3.4290266
  40.3331188  26.4006876   1.9836883  42.6702367  22.7724524   2.5846874
  42.6563936  21.8765617   2.2479172  43.3874795  22.7795188   3.2185160
  44.5228498  23.2061864   4.6300001  44.2646276  24.1278935   4.6284332
  43.9913538  22.8092299   5.3200466  35.2851647  28.3227320   5.4753646
  34.7405115  29.0987128   5.6073920  36.1630996  28.6698125   5.3172767
  36.0717668  27.4497217   8.3683803  35.3299404  27.5979852   8.9548433
  35.7510413  27.7105482   7.5050552  44.0161331  36.9913195   8.1664193
  44.3248458  36.7462342   9.0386892  44.8136813  37.1959833   7.6783063
  34.7182887  33.2548972   1.3583131  33.8814795  32.8271146   1.1767132
  34.6906533  33.4481415   2.2953922  41.5580343  23.1670902  12.0624377
  41.6068498  24.0433024  11.6802146  42.1002857  22.6248295  11.4896020
  52.0435188  33.7112025  11.3425514  51.2530732  33.6936164  10.8030013
  51.8068543  34.2500319  12.0974550  52.1633064  30.5604491   8.6558242
  52.2131068  30.3954499   9.5973765  52.0546987  29.6931750   8.2656123
  49.4536826  26.5435419   9.9717549  50.3546689  26.4041884   9.6801547
  49.5284800  26.7089874  10.9115727  43.7879631  23.9202274   8.8170735
  42.9182941  24.2135840   8.5453324  44.0239112  24.5042719   9.5377999
  53.6651260  32.9801433   8.9000264  53.3736069  33.3431413   9.7363725
  53.0523392  32.2668441   8.7213596  51.9138449  28.1034047   7.3680322
  52.3892570  28.2961694   6.5599173  50.9904014  28.1593233   7.1223706
  46.4918665  20.1381891   6.3336156  47.0100609  20.8742918   6.0082644
  46.1373798  20.4445884   7.1682915  50.6140118  24.9799808   5.6008628
  51.5657540  25.0797905   5.6220852  50.4443568  24.1878076   6.1106712
  48.6354497  22.0655391   5.7868028  48.0404429  22.3460403   5.0914517
  48.3504194  22.5549292   6.5584770  44.8150219  31.1219726  12.2178788
  45.7353228  31.2998325  12.4118835  44.7799802  30.1775772  12.0658487
  34.0332384  26.3158320   1.1432063  33.7135168  25.4623628   0.8506437
  33.4865812  26.5306898   1.8990030  37.8112291  29.0320761   4.8601569
  38.0298301  29.9637869   4.8789603  38.2238065  28.6728735   5.6456373
  42.6840157  24.6053967  14.2504318  42.5836884  25.5548324  14.1816409
  42.4661699  24.2772206  13.3780388  33.9020644  29.9361231   3.1125184
  33.2084115  29.5215184   2.5995139  34.6493635  29.9781768   2.5158603
  42.5471427  28.0351106  13.0669380  42.0638508  28.8351466  13.2733269
  42.6332366  28.0459050  12.1136824  35.8157386  29.8679485   0.9891199
  35.7928074  29.9667173   0.0373082  36.1258023  30.7144636   1.3108365
  38.4744764  31.9255640   5.1037814  39.4288018  31.8939583   5.0367745
  38.2757288  31.4646264   5.9188040  39.0644146  30.4956756   7.6708611
  39.8837035  30.9900835   7.6943449  39.3380954  29.5788724   7.6426179
  34.3179061  24.8294890   8.3700808  34.9637924  24.3193844   8.8588034
  34.1096212  25.5663572   8.9444234  46.8432453  31.8975738  13.8692949
  47.7123612  32.0716390  13.5079584  46.3639204  32.7170155  13.7468678
  41.0118633  39.0172839   5.5482383  41.9145880  39.0496449   5.8648878
  40.7856003  38.0873290   5.5628718  38.6576552  21.9762507  12.4675823
  39.5208013  21.6199312  12.6779147  38.0841962  21.6376402  13.1551227
  51.2158052  35.3843224  13.4605794  50.8224998  34.8309422  14.1353438
  52.0324193  35.6953802  13.8512312  54.1326013  36.8001103  11.0526051
  54.8735727  37.4008256  10.9730513  54.3643936  36.0578741  10.4944093
  49.1606040  39.1744913  10.4010457  49.7878079  38.7921991  11.0147981
  48.3033959  38.9559115  10.7666150  52.3974097  38.4962819  12.0624377
  52.4462253  39.3724942  11.6802146  52.9396611  37.9540212  11.4896020
  53.5233911  39.9345884  14.2504318  53.4230638  40.8840241  14.1816409
  53.3055453  39.6064123  13.3780388  45.1572815  40.1586808   8.3700808
  45.8031679  39.6485762   8.8588034  44.9489966  40.8955490   8.9444234
  49.4970306  37.3054425  12.4675823  50.3601768  36.9491230  12.6779147
  48.9235717  36.9668320  13.1551227   4.3029555  44.4338244  27.6746103
   3.5493264  43.8645642  27.5190108   4.4377096  44.4000908  28.6216738
   0.6678168  45.8746232  27.9712218   1.5025059  46.3136036  28.1349778
   0.8037296  45.3984885  27.1520464   4.7135970  44.5913854  30.4066348
   5.4439359  44.3299142  30.9674051   4.1042916  43.8542575  30.4468416
   2.7951267  42.7321716  31.0040799   2.0684431  42.5977681  30.3957290
   2.3798554  43.0398545  31.8097517   2.7200135  42.2599769  27.1317652
   2.1599693  42.3292958  27.9049214   2.1143638  42.0840754  26.4117148
   3.8814401  48.1574125  31.8799716   3.5378671  49.0475767  31.8038827
   4.2493364  47.9675783  31.0169301   5.6802067  47.4167685  26.9817454
   5.9860944  46.5565048  26.6943369   6.4054672  48.0085305  26.7816448
   3.3856239  47.2166011  28.4046436   3.6657993  46.5489200  29.0306863
   4.1706846  47.4095106  27.8921100   7.5458390  49.3941823  27.2714407
   7.3483211  49.0856912  28.1557739   8.1558096  50.1203462  27.4012337
   3.2959770  46.3461549  24.9280025   2.5292166  45.7920035  25.0736707
   3.7070475  46.4183417  25.7894177   4.3029556  21.4400366  14.3991410
   3.5493265  20.8707764  14.2435414   4.4377098  21.4063031  15.3462045
   0.6678169  22.8808355  14.6957524   1.5025060  23.3198159  14.8595085
   0.8037298  22.4047008  13.8765770   4.7135972  21.5975976  17.1311654
   5.4439360  21.3361264  17.6919358   4.1042917  20.8604698  17.1713722
   2.7951269  19.7383839  17.7286105   2.0684432  19.6039804  17.1202597
   2.3798556  20.0460667  18.5342823   2.7200136  19.2661892  13.8562958
   2.1599694  19.3355081  14.6294520   2.1143640  19.0902876  13.1362454
   4.3056155  35.9418406  16.5492914   4.9434565  35.8225153  15.8456254
   4.1876998  36.8899250  16.6080866   1.1145861  35.8945834  16.4854439
   0.7764373  35.7786898  15.5974974   1.9835629  35.4936999  16.4655445
   1.5965644  37.0480686  22.4440644   1.5854285  36.6533484  21.5721148
   1.7586284  36.3146758  23.0374416   3.8597423  33.6669860  13.6246122
   4.6460512  33.2489283  13.2736539   4.1236128  34.5715952  13.7927770
   9.2605850  33.6045093  14.5279101   9.9931022  33.0344310  14.7616930
   8.5045206  33.2166693  14.9685606   0.8781970  36.0272334  11.7242443
   0.5140177  35.5002955  12.4355364   1.7349086  35.6370803  11.5508928
   6.7831271  27.3166667  18.9873709   6.4514596  28.1862078  18.7634924
   6.1876884  27.0002951  19.6667740   3.2762790  39.5179213  18.3869622
   2.9763513  40.4204252  18.2785429   2.9313850  39.2511396  19.2390775
   6.6759934  32.0361753  16.0667059   5.7676811  31.9677161  15.7725820
   6.6247530  32.5133698  16.8948885   8.5421580  30.2378191  17.8444933
   7.8995961  30.5310725  17.1984728   8.0376509  30.1231112  18.6498130
   6.1961744  33.9841365   8.5330792   7.1079600  34.2168751   8.3578490
   5.6871391  34.5678409   7.9705871   4.4802512  38.4065992  22.1692085
   4.8885868  37.9648403  21.4246717   3.7579773  37.8318620  22.4226278
   0.8333582  33.3438599  19.5425642   1.6794777  33.7678013  19.6860291
   0.7732219  32.6872224  20.2364205   4.8031326  38.9667183  15.9244374
   4.1740189  39.1312897  15.2220442   4.4156988  39.3808793  16.6955338
   8.6820558  39.9021621  13.2788738   7.9971596  40.2820522  12.7285771
   8.7664408  40.5116948  14.0120685   3.9833027  31.0042968  21.2006816
   3.7393959  31.7585028  20.6641091   4.2592958  31.3828315  22.0354063
   5.9371490  37.5481580  19.8784081   6.1488385  38.1913340  19.2018462
   5.8901238  36.7143896  19.4106011   3.5397719  30.1599401  16.7820653
   2.6782198  30.4580654  17.0737391   3.5660154  30.3769799  15.8501686
   7.0517318  40.4253535  18.0506438   7.8734762  40.0233723  17.7689120
   7.0479721  40.3221770  19.0022554  15.1423311  36.7692284  14.3991410
  14.3887019  36.1999682  14.2435414  15.2770852  36.7354948  15.3462045
   2.1590415  42.2629253  24.2046471   1.7154270  41.4765631  23.8867376
   2.8207629  42.4508403  23.5390362   4.2571653  42.5432053  22.2327873
   4.2390129  43.3640934  21.7408142   5.1791573  42.4186128  22.4578014
   3.8814403  25.1636248  18.6045023   3.5378672  26.0537890  18.5284133
   4.2493365  24.9737906  17.7414608   1.4311796  29.9994560  12.1702696
   0.5753393  29.6101410  11.9908335   1.8438748  30.0786521  11.3102482
   2.9610943  27.5340903  16.5694256   2.4575739  27.4971038  15.7562061
   3.2541550  28.4433646  16.6290913   8.8198959  37.9077214   9.0470631
   8.0428402  37.5688373   8.6025793   9.4990440  37.9129837   8.3725596
   3.6350988  33.0271951   8.9377239   3.3301124  33.3418100   9.7887382
   4.5881431  33.1053371   8.9804572   7.0590266  37.3811195  15.7037239
   6.4013941  38.0710456  15.7917368   7.8630666  37.7707627  16.0471226
   5.8695725  35.7355568  13.7541181   6.3827607  36.3685560  14.2562891
   6.5196949  35.1356763  13.3884541   2.3476556  33.2105023  15.9999522
   1.4299117  33.4319970  15.8421210   2.7636700  33.2851334  15.1411229
   3.1311604  34.6096439  11.1302202   3.8783423  35.1217836  10.8209324
   3.4003193  34.2880492  11.9906595   6.6357521  40.7161569  11.8820324
   6.1819848  39.8752479  11.9385514   6.0051488  41.3522968  12.2195104
   5.5790441  31.6453555  13.1120991   4.8413198  31.1330941  13.4431234
   5.8317214  31.2053937  12.3004268   5.0790461  42.5538066  12.8170142
   5.3713435  43.1143123  12.0982507   5.5889081  42.8466627  13.5723301
   5.6802068  24.4229807  13.7062760   5.9860945  23.5627171  13.4188676
   6.4054673  25.0147427  13.5061754   3.4889720  33.8002485  20.8044224
   3.8439107  34.0273958  21.6638690   4.1361851  34.1320861  20.1821480
   9.2187456  36.9220920  11.5093553   9.0805355  37.1122516  10.5814743
   8.8623675  37.6840303  11.9661604   9.2456836  38.9897447  16.5204825
   9.6793343  38.8972736  17.3687879   9.9588417  38.9654948  15.8824841
   2.9784731  42.5899542  18.0537925   3.0321753  43.1590478  18.8215641
   2.1099512  42.7601427  17.6891963  10.1072386  39.0321148  19.0537710
  10.3008276  39.9366959  19.2996985  10.0073004  38.5728567  19.8876295
   1.7608696  28.9179039  21.5528038   1.1136611  29.6168988  21.4592514
   2.5309712  29.3515183  21.9204286   5.1687494  39.1827891  24.6278591
   5.0173001  38.9538442  23.7108674   5.1592174  40.1398492  24.6409936
   1.9372831  36.7559804  19.6124857   2.8664891  36.9070963  19.4393825
   1.5163861  36.8443824  18.7573504   2.2866378  40.1592071  14.7712233
   1.9516210  40.1192841  15.6669883   1.7870323  39.4936787  14.2982643
   6.8779701  42.2147013  22.7055073   6.8192247  41.5306233  22.0385656
   7.2799219  42.9566003  22.2535699   6.8797108  40.1786597  20.9369052
   5.9923887  39.8412519  21.0595451   7.4495659  39.4469629  21.1737818
   3.5084691  29.8854449  14.0567322   4.0053391  29.1324411  13.7368393
   2.7371673  29.9218766  13.4910532  11.3614449  35.5894815  15.6985614
  11.3504325  36.4719530  15.3279547  10.4931828  35.2366365  15.5040151
   2.8696945  44.7374884  20.0588454   3.5824917  45.3722348  19.9864356
   2.3786974  44.8338750  19.2428456   4.5914472  38.6426136  11.6305746
   3.6570751  38.7627599  11.4610450   4.7691141  37.7398603  11.3665756
   7.9787023  34.4843456  12.1655780   8.4447476  35.3171447  12.0916083
   8.4294524  34.0188437  12.8701039   6.0463255  40.8287277   9.1641932
   6.3223098  40.7143871  10.0735806   5.1767753  40.4304762   9.1254105
   5.9503686  26.8524043  16.2046681   5.0366766  27.0828269  16.3728888
   6.3796788  26.9362487  17.0560714   5.7210145  35.0413935  18.7046575
   5.0681595  35.2889842  18.0499028   6.0990525  34.2278073  18.3709053
   1.7697718  35.7833746  25.1912612   1.0938355  35.6827875  25.8614988
   2.5925352  35.6272959  25.6548610   0.5120501  47.0900673  19.4270228
   1.0638809  47.2532295  20.1919314   0.8526694  47.6805111  18.7550253
   5.3631375  41.9161931  25.2818883   5.9071279  42.5291889  24.7873838
   4.7818220  42.4741509  25.7985896   3.6488888  45.0382649  16.4133911
   3.5240027  44.2372388  15.9044856   4.3067979  45.5328842  15.9247881
   5.7123796  42.8391669  18.0413461   4.7654132  42.7197020  17.9691787
   6.0606569  41.9514167  18.1239722   2.7170230  42.6344385  14.2417813
   2.5695192  41.7061092  14.4225383   3.5423723  42.6564476  13.7574888
   6.3204351  43.4572944  15.3282686   7.2450899  43.2515805  15.1907137
   6.1519655  43.2089345  16.2372027   2.7131744  30.4882223   9.2349930
   2.9295358  31.3706860   8.9338758   2.2325811  30.0968436   8.5055572
   1.1653479  30.8707824  17.9054692   0.9071257  31.7924895  17.9039022
   0.6338519  30.4738259  18.5955156   6.1099668  43.9758611  10.6844777
   6.2836545  43.4105034   9.9318630   6.6028559  44.7759506  10.5024267
   1.5855434  27.0039774  14.2655854   1.6077131  27.0679108  13.3107834
   2.0023493  26.1644283  14.4596360  11.9639059  36.7395034  12.3035077
  12.4070205  35.9902359  11.9054200  11.0865569  36.7305170  11.9208809
   8.9966263  40.7425081   9.3129006   9.5217587  41.0812354   8.5878326
   8.9088616  39.8072096   9.1292141   0.6586312  44.6559155  21.4418883
   0.9673438  44.4108301  22.3141582   1.4561794  44.8605793  20.9537753
   8.6860169  41.3757985  24.6180204   7.8955713  41.3582124  24.0784704
   8.4493524  41.9146278  25.3729241   8.8058044  38.2250451  21.9312933
   8.8556049  38.0600458  22.8728455   8.6971968  37.3577710  21.5410813
   6.0961807  34.2081379  23.2472239   6.9971669  34.0687844  22.9556237
   6.1709781  34.3735834  24.1870417  10.3076241  40.6447393  22.1754954
  10.0161049  41.0077373  23.0118415   9.6948372  39.9314401  21.9968286
  11.5071923  38.2100272  14.6957524  12.3418815  38.6490076  14.8595085
  11.6431052  37.7338926  13.8765770   8.5563429  35.7680007  20.6435012
   9.0317551  35.9607653  19.8353864   7.6328995  35.8239193  20.3978396
   3.1343646  27.8027851  19.6090846   3.6525590  28.5388878  19.2837335
   2.7798779  28.1091844  20.4437605   3.3856240  24.2228133  15.1291743
   3.6657994  23.5551322  15.7552169   4.1706847  24.4157229  14.6166407
   7.2565098  32.6445767  18.8763318   8.2082521  32.7443865  18.8975542
   7.0868549  31.8524036  19.3861402   5.2779478  29.7301350  19.0622719
   4.6829410  30.0106363  18.3669207   4.9929175  30.2195251  19.8339460
   9.7353176  35.8651887  17.9905617   9.7029496  34.9267888  18.1765301
  10.3453800  35.9435924  17.2571442   9.8847665  32.6562930  18.0363901
   9.3686713  31.8721387  17.8493830  10.7687613  32.3281647  18.2010420
   7.5458392  26.4003946  13.9959713   7.3483213  26.0919034  14.8803045
   8.1558097  27.1265585  14.1257643  15.5529726  36.9267894  17.1311654
  16.2833114  36.6653182  17.6919358  14.9436671  36.1896616  17.1713722
  13.6345023  35.0675756  17.7286105  12.9078187  34.9331721  17.1202597
  13.2192310  35.3752585  18.5342823   1.4575200  38.7865686  25.4933478
   2.3778209  38.9644285  25.6873525   1.4224783  37.8421731  25.3413178
   1.3741490  27.2034806  10.1231948   0.5642218  26.8581891  10.4987194
   2.0625907  26.8942350  10.7119560   3.3032038  26.2812853  11.7456245
   3.8563077  26.7008306  12.4046268   3.5402125  25.3548601  11.7879201
   6.6810845  28.3913378  11.2534909   6.1009514  29.0498182  10.8712961
   6.4146778  27.5690723  10.8422326   5.1314412  27.7918436  13.4556229
   5.6314190  27.9034970  12.6470548   5.7750020  27.4879489  14.0957038
   5.4635723  30.5513468  10.3091257   4.5761578  30.8363119  10.0911452
   5.8789712  30.3907232   9.4618534   8.8150259  30.5759989  14.0245596
   9.5910650  31.0656442  14.2970213   8.0898394  31.0018044  14.4817466
  11.2522818  31.2887609  15.0819537  11.8467309  31.0483345  14.3712845
  11.3249402  30.5694739  15.7093073   5.4376747  36.0668004  10.5241547
   5.3811948  36.5236556   9.6849180   5.9905089  35.3058689  10.3464390
   9.2481553  31.8557736  11.3491667   8.9918487  31.4554372  12.1799875
   8.6234421  32.5701530  11.2241806  13.5593891  34.5953809  13.8562958
  12.9993449  34.6646999  14.6294520  12.9537394  34.4194794  13.1362454
   6.1711526  37.2572786   7.8194077   6.1160330  37.0917057   6.8782521
   5.5457582  37.9648818   7.9756266   3.4857434  39.5621697  27.1447639
   4.3548593  39.7362350  26.7834274   3.0064185  40.3816114  27.0223369
   3.2959771  23.3523671  11.6525332   2.5292167  22.7982158  11.7982014
   3.7070476  23.4245540  12.5139483  15.1449909  51.2710323  16.5492914
  15.7828319  51.1517071  15.8456254  15.0270752  52.2191167  16.6080866
  11.9539616  51.2237751  16.4854439  11.6158127  51.1078816  15.5974974
  12.8229384  50.8228917  16.4655445  12.4359399  52.3772603  22.4440644
  12.4248039  51.9825401  21.5721148  12.5980038  51.6438676  23.0374416
  14.6991178  48.9961777  13.6246122  15.4854267  48.5781200  13.2736539
  14.9629882  49.9007869  13.7927770  20.0999605  48.9337010  14.5279101
  20.8324777  48.3636227  14.7616930  19.3438961  48.5458611  14.9685606
  11.7175725  51.3564252  11.7242443  11.3533932  50.8294873  12.4355364
  12.5742840  50.9662721  11.5508928  17.6225025  42.6458585  18.9873709
  17.2908350  43.5153995  18.7634924  17.0270639  42.3294869  19.6667740
  17.5153689  47.3653671  16.0667059  16.6070566  47.2969079  15.7725820
  17.4641284  47.8425616  16.8948885  11.5894554  48.7843316  24.0101956
  10.8127888  49.3437236  24.0004821  12.2285117  49.2700099  24.5316827
  19.3815335  45.5670109  17.8444933  18.7389715  45.8602642  17.1984728
  18.8770263  45.4523029  18.6498130  17.0355499  49.3133282   8.5330792
  17.9473355  49.5460669   8.3578490  16.5265146  49.8970326   7.9705871
  11.6727336  48.6730517  19.5425642  12.5188532  49.0969930  19.6860291
  11.6125974  48.0164141  20.2364205  14.8226782  46.3334885  21.2006816
  14.5787714  47.0876946  20.6641091  15.0986712  46.7120233  22.0354063
  16.7765244  52.8773498  19.8784081  16.9882140  53.5205258  19.2018462
  16.7294993  52.0435814  19.4106011  14.3791473  45.4891318  16.7820653
  13.5175952  45.7872572  17.0737391  14.4053908  45.7061717  15.8501686
   8.5802290  48.7468418  24.3735233   7.9500951  49.4284699  24.6070630
   8.4738378  48.6351499  23.4288372  25.9817065  52.0984202  14.3991410
  25.2280774  51.5291600  14.2435414  26.1164607  52.0646866  15.3462045
   7.8583033  43.0489184  26.7360484   7.4649979  42.4955382  27.4108129
   8.6749173  43.3599762  27.1267002  10.7750994  44.4647063  24.3280741
  11.5160707  45.0654216  24.2485204  11.0068917  43.7224701  23.7698784
  14.7208157  40.4928166  18.6045023  14.3772426  41.3829807  18.5284133
  15.0887120  40.3029823  17.7414608  12.2705551  45.3286478  12.1702696
  11.4147147  44.9393328  11.9908335  12.6832503  45.4078438  11.3102482
  13.8004697  42.8632821  16.5694256  13.2969493  42.8262956  15.7562061
  14.0935304  43.7725564  16.6290913  10.0447583  42.9471551  15.5760438
  10.9100580  42.7514359  15.2166327  10.1125092  42.7181902  16.5029794
  19.6592714  53.2369131   9.0470631  18.8822157  52.8980291   8.6025793
  20.3384195  53.2421755   8.3725596  14.4744743  48.3563869   8.9377239
  14.1694878  48.6710018   9.7887382  15.4275185  48.4345289   8.9804572
  17.8984021  52.7103113  15.7037239  17.2407695  53.4002374  15.7917368
  18.7024420  53.0999545  16.0471226   7.6509902  45.1773759  12.9476805
   8.2253654  44.9548940  12.2149997   8.2380885  45.2462453  13.7005406
  16.7089480  51.0647485  13.7541181  17.2221361  51.6977477  14.2562891
  17.3590703  50.4648681  13.3884541   9.9532570  42.0515007  11.6751874
   9.2996982  41.7364025  11.0508489   9.9113044  41.4290748  12.4011697
  13.1870310  48.5396941  15.9999522  12.2692872  48.7611888  15.8421210
  13.6030454  48.6143251  15.1411229  13.9705358  49.9388357  11.1302202
  14.7177177  50.4509754  10.8209324  14.2396948  49.6172409  11.9906595
  16.4184195  46.9745473  13.1120991  15.6806952  46.4622859  13.4431234
  16.6710969  46.5345854  12.3004268  16.5195823  39.7521725  13.7062760
  16.8254699  38.8919088  13.4188676  17.2448427  40.3439345  13.5061754
  10.7916902  50.0475518  14.2138951  10.8465512  49.0949354  14.1381428
   9.9808104  50.2034957  14.6980250   8.7309262  48.6652578  11.9729330
   7.9177128  48.9646748  12.3794522   9.2268257  48.2708266  12.6903813
  14.3283474  49.1294402  20.8044224  14.6832862  49.3565875  21.6638690
  14.9755605  49.4612779  20.1821480  20.0581211  52.2512838  11.5093553
  19.9199110  52.4414434  10.5814743  19.7017430  53.0132221  11.9661604
   8.2223337  46.2370933  17.5890565   8.8622716  46.0959692  16.8913529
   7.3900868  45.9505447  17.2129167  20.0850591  54.3189365  16.5204825
  20.5187097  54.2264654  17.3687879  20.7982171  54.2946866  15.8824841
   6.6976879  47.6209015  19.5362377   7.3699932  47.4126378  18.8875026
   5.8706665  47.4231101  19.0967609  20.9466140  54.3613066  19.0537710
  21.1402030  55.2658876  19.2996985  20.8466758  53.9020485  19.8876295
  12.6002451  44.2470956  21.5528038  11.9530366  44.9460906  21.4592514
  13.3703466  44.6807100  21.9204286  12.7766585  52.0851721  19.6124857
  13.7058645  52.2362881  19.4393825  12.3557615  52.1735742  18.7573504
   9.7286677  50.6071578  19.7848493  10.4386295  49.9664770  19.7435112
   9.6855985  50.8584473  20.7074674   8.4415611  47.5936796  21.6044133
   7.9052968  47.1427534  22.2565729   7.8532319  47.7282704  20.8614597
   4.1754732  46.7292803  18.6897127   4.0912921  46.1218473  17.9547537
   3.3537438  47.2201822  18.6906624  14.3478446  45.2146367  14.0567322
  14.8447145  44.4616329  13.7368393  13.5765427  45.2510683  13.4910532
  22.2008203  50.9186732  15.6985614  22.1898080  51.8011448  15.3279547
  21.3325583  50.5658283  15.5040151  10.9313415  47.3563750  13.7839007
  10.5611202  46.8034790  14.4719913  11.4272507  46.7521883  13.2314007
  18.8180778  49.8135373  12.1655780  19.2841230  50.6463365  12.0916083
  19.2688278  49.3480355  12.8701039  16.7897441  42.1815960  16.2046681
  15.8760520  42.4120187  16.3728888  17.2190542  42.2654404  17.0560714
  16.5603899  50.3705852  18.7046575  15.9075349  50.6181760  18.0499028
  16.9384279  49.5569990  18.3709053  12.6091472  51.1125663  25.1912612
  11.9332109  51.0119793  25.8614988  13.4319106  50.9564877  25.6548610
   6.3278748  44.7667741  20.0292113   6.3920075  45.6282571  19.6169511
   6.2645869  44.1541742  19.2964472   5.8031021  46.8390873  23.6765147
   6.4303060  46.4567950  24.2902672   4.9458940  46.6205075  24.0420840
   6.1090811  46.7223299  15.5911051   5.3877396  47.3359266  15.4518524
   6.8984066  47.2581064  15.5127697   8.9117124  44.0577725  21.8651703
   9.4351526  44.3040022  22.6278012   8.6929457  44.8897760  21.4454840
  10.1169669  44.9991420  19.5501373   9.7766489  44.1999233  19.9522053
   9.4108675  45.2993131  18.9778206  10.7686141  42.0840733  18.0028696
  11.5912210  41.6101211  17.8807586  11.0124204  42.8631217  18.5027382
  13.5525498  45.8174140   9.2349930  13.7689113  46.6998778   8.9338758
  13.0719565  45.4260354   8.5055572   8.2924720  48.7759853  15.8120675
   8.1469300  49.0900157  16.7044956   7.8149923  49.3944754  15.2591573
  10.1521103  45.7662401  15.8601564  10.1382671  44.8703495  15.5233862
  10.8693531  45.7733065  16.4939850  12.0047233  46.1999742  17.9054692
  11.7465011  47.1216812  17.9039022  11.4732274  45.8030176  18.5955156
   9.5557999  44.6476782  11.1289134   9.6773910  43.7193428  11.3280022
   9.2660041  44.6615468  10.2167450  12.4249189  42.3331692  14.2655854
  12.4470886  42.3971025  13.3107834  12.8417248  41.4936201  14.4596360
  22.8032813  52.0686952  12.3035077  23.2463959  51.3194277  11.9054200
  21.9259324  52.0597088  11.9208809   9.0399078  46.1608779  25.3379067
   9.0887234  47.0370902  24.9556837   9.5821592  45.6186172  24.7650710
  19.6451799  53.5542369  21.9312933  19.6949804  53.3892376  22.8728455
  19.5365722  52.6869628  21.5410813  16.9355561  49.5373297  23.2472239
  17.8365424  49.3979762  22.9556237  17.0103536  49.7027752  24.1870417
  11.2698366  46.9140152  22.0925426  10.4001676  47.2073718  21.8208014
  11.5057847  47.4980597  22.8132689  22.3465678  53.5392190  14.6957524
  23.1812569  53.9781994  14.8595085  22.4824807  53.0630843  13.8765770
  19.3957184  51.0971925  20.6435012  19.8711305  51.2899571  19.8353864
  18.4722749  51.1531111  20.3978396  13.9737400  43.1319768  19.6090846
  14.4919344  43.8680795  19.2837335  13.6192533  43.4383762  20.4437605
  14.2249994  39.5520051  15.1291743  14.5051748  38.8843240  15.7552169
  15.0100601  39.7449147  14.6166407  18.0958853  47.9737685  18.8763318
  19.0476276  48.0735783  18.8975542  17.9262303  47.1815954  19.3861402
  16.1173232  45.0593268  19.0622719  15.5223164  45.3398281  18.3669207
  15.8322929  45.5487169  19.8339460  20.5746931  51.1943805  17.9905617
  20.5423251  50.2559805  18.1765301  21.1847554  51.2727841  17.2571442
  20.7241419  47.9854848  18.0363901  20.2080468  47.2013305  17.8493830
  21.6081368  47.6573565  18.2010420  18.3852146  41.7295864  13.9959713
  18.1876967  41.4210952  14.8803045  18.9951852  42.4557503  14.1257643
  26.3923480  52.2559811  17.1311654  27.1226869  51.9945100  17.6919358
  25.7830426  51.5188533  17.1713722  24.4738778  50.3967674  17.7286105
  23.7471941  50.2623639  17.1202597  24.0586064  50.7044503  18.5342823
  12.2135244  42.5326724  10.1231948  11.4035973  42.1873809  10.4987194
  12.9019661  42.2234267  10.7119560  10.1658892  47.5991844  27.5259009
  10.0655619  48.5486201  27.4571100   9.9480434  47.2710083  26.6535079
  17.5204600  43.7205296  11.2534909  16.9403269  44.3790100  10.8712961
  17.2540532  42.8982640  10.8422326  15.9708166  43.1210353  13.4556229
  16.4707944  43.2326888  12.6470548  16.6143774  42.8171406  14.0957038
  16.3029478  45.8805386  10.3091257  15.4155333  46.1655037  10.0911452
  16.7183467  45.7199149   9.4618534  19.6544014  45.9051907  14.0245596
  20.4304404  46.3948359  14.2970213  18.9292148  46.3309961  14.4817466
  22.0916573  46.6179526  15.0819537  22.6861063  46.3775262  14.3712845
  22.1643156  45.8986657  15.7093073  16.2770502  51.3959922  10.5241547
  16.2205703  51.8528473   9.6849180  16.8298844  50.6350607  10.3464390
  20.0875307  47.1849654  11.3491667  19.8312242  46.7846290  12.1799875
  19.4628175  47.8993448  11.2241806  24.3987645  49.9245727  13.8562958
  23.8387203  49.9938916  14.6294520  23.7931149  49.7486712  13.1362454
  17.0105281  52.5864703   7.8194077  16.9554085  52.4208975   6.8782521
  16.3851336  53.2940736   7.9756266   1.7997796  47.8232768  21.6455499
   2.4456659  47.3131722  22.1342724   1.5914947  48.5601449  22.2198924
  10.3201406  42.0872812   7.3979395  10.3080076  43.0314652   7.5547666
  11.2124828  41.9042958   7.1038856  14.1353526  38.6815589  11.6525332
  13.3685922  38.1274076  11.7982014  14.5464231  38.7537458  12.5139483
   6.1395287  44.9700385  25.7430513   7.0026748  44.6137190  25.9533838
   5.5660697  44.6314280  26.4305917  25.5601912  55.8220083  18.6045023
  25.2166181  56.7121725  18.5284133  25.9280874  55.6321741  17.7414608
  27.3589577  55.0813643  13.7062760  27.6648454  54.2211006  13.4188676
  28.0842182  55.6731263  13.5061754  25.0643749  54.8811969  15.1291743
  25.3445503  54.2135158  15.7552169  25.8494356  55.0741064  14.6166407
  29.2245901  57.0587781  13.9959713  29.0270722  56.7502870  14.8803045
  29.8345606  57.7849420  14.1257643  24.9747280  54.0107507  11.6525332
  24.2079676  53.4565993  11.7982014  25.3857985  54.0829375  12.5139483
   6.8779702  19.2209136   9.4300379   6.8192248  18.5368356   8.7630962
   7.2799221  19.9628126   8.9781005   5.3631376  18.9224053  12.0064190
   5.9071280  19.5354011  11.5119144   4.7818221  19.4803632  12.5231203
   8.6860171  18.3820107  11.3425511   7.8955714  18.3644246  10.8030010
   8.4493525  18.9208401  12.0974547  10.3076242  17.6509515   8.9000261
  10.0161051  18.0139496   9.7363722   9.6948374  16.9376523   8.7213593
   3.4857435  16.5683820  13.8692946   4.3548594  16.7424472  13.5079581
   3.0064186  17.3878237  13.7468675  15.1449911  28.2772446   3.2738221
  15.7828320  28.1579193   2.5701561  15.0270753  29.2253290   3.3326173
  11.9539617  28.2299874   3.2099745  11.6158128  28.1140939   2.3220280
  12.8229385  27.8291039   3.1900751  12.4359400  29.3834726   9.1685951
  12.4248041  28.9887524   8.2966454  12.5980039  28.6500798   9.7619722
   9.1566661  32.1671838   8.1165135   8.8656527  33.0717468   8.0011801
   9.7923645  32.2088365   8.8309204  10.0822868  29.5448686   4.7066494
  10.6786440  29.3204709   3.9923457  10.1397839  28.8033432   5.3091942
  20.0999606  25.9399133   1.2524407  20.8324778  25.3698350   1.4862237
  19.3438962  25.5520733   1.6930913  17.6225026  19.6520707   5.7119016
  17.2908351  20.5216118   5.4880231  17.0270640  19.3356991   6.3913046
  14.1156546  31.8533253   5.1114928  13.8157269  32.7558292   5.0030736
  13.7707606  31.5865436   5.9636081  17.5153690  24.3715793   2.7912366
  16.6070567  24.3031202   2.4971127  17.4641286  24.8487738   3.6194191
  11.5894556  25.7905439  10.7347263  10.8127890  26.3499359  10.7250128
  12.2285119  26.2762222  11.2562133  19.3815336  22.5732232   4.5690240
  18.7389716  22.8664765   3.9230034  18.8770265  22.4585152   5.3743436
   9.8440928  28.5990892  10.2965230  10.5855612  29.1375936  10.0200054
   9.1377913  29.2257181  10.4536782  15.3196268  30.7420033   8.8937392
  15.7279624  30.3002443   8.1492024  14.5973529  30.1672660   9.1471584
  11.6727338  25.6792639   6.2670949  12.5188533  26.1032053   6.4105598
  11.6125975  25.0226264   6.9609512  15.6425082  31.3021223   2.6489680
  15.0133945  31.4666937   1.9465748  15.2550744  31.7162833   3.4200644
  19.5214314  32.2375661   0.0034044  18.8365352  32.6174563  -0.5468922
  19.6058163  32.8470988   0.7365992  14.8226783  23.3397008   7.9252122
  14.5787715  24.0939068   7.3886398  15.0986713  23.7182355   8.7599369
  16.7765246  29.8835620   6.6029388  16.9882141  30.5267380   5.9263769
  16.7294994  29.0497937   6.1351318   8.0877125  30.5867113   2.8519529
   8.6578482  31.0154381   2.2137013   8.6785237  30.3049698   3.5503714
   8.5802292  25.7530540  11.0980540   7.9500952  26.4346821  11.3315937
   8.4738380  25.6413622  10.1533678  17.8911074  32.7607576   4.7751745
  18.7128517  32.3587763   4.4934427  17.8873476  32.6575810   5.7267861
  11.6567677  32.3091619   6.9312456  11.7212110  32.7712026   7.7670627
  10.9478601  31.6788984   7.0594765  25.9817067  29.1046324   1.1236717
  25.2280775  28.5353722   0.9680721  26.1164608  29.0708989   2.0707351
   7.8583034  20.0551306  13.4605791   7.4649980  19.5017505  14.1353435
   8.6749175  20.3661885  13.8512309  10.7750995  21.4709185  11.0526048
  11.5160709  22.0716338  10.9730510  11.0068918  20.7286823  10.4944090
   5.9192333  26.6565553   9.3304277   5.8045848  25.7550810   9.6311376
   5.0636851  26.9029249   8.9789094  12.9984171  34.5983293  10.9291778
  12.5548025  33.8119671  10.6112682  13.6601385  34.7862443  10.2635669
   7.7571292  36.1279095   5.4552457   8.3078717  35.9996158   4.6829450
   6.9182768  36.4273984   5.1047349  15.0965409  34.8786093   8.9573179
  15.0783885  35.6994974   8.4653448  16.0185329  34.7540168   9.1823320
  11.5538463  32.3930222   9.7996688  12.0866800  31.6318511   9.5695996
  11.0252544  32.1003874  10.5420842  17.8984022  29.7165235   2.4282546
  17.2407696  30.4064497   2.5162675  18.7024421  30.1061667   2.7716532
  16.7089481  28.0709608   0.4786488  17.2221363  28.7039600   0.9808197
  17.3590705  27.4710804   0.1129848  13.1870312  25.5459064   2.7244828
  12.2692873  25.7674011   2.5666516  13.6030455  25.6205374   1.8656536
  17.4751277  33.0515609  -1.3934370  17.0213604  32.2106519  -1.3369179
  16.8445244  33.6877008  -1.0559590  15.9184216  34.8892106  -0.4584552
  16.2107191  35.4497163  -1.1772186  16.4282837  35.1820667   0.2968608
  14.3283475  26.1356525   7.5289531  14.6832863  26.3627998   8.3883997
  14.9755607  26.4674902   6.9066786  20.0581212  29.2574961  -1.7661140
  19.9199111  29.4476557  -2.6939951  19.7017431  30.0194343  -1.3093089
  20.0850592  31.3251488   3.2450131  20.5187098  31.2326777   4.0933185
  20.7982173  31.3008988   2.6070147  13.8178487  34.9253582   4.7783232
  13.8715509  35.4944518   5.5460948  12.9493268  35.0955467   4.4137269
   6.6976880  24.6271138   6.2607683   7.3699934  24.4188500   5.6120332
   5.8706667  24.4293224   5.8212916  20.9466141  31.3675188   5.7783017
  21.1402031  32.2720999   6.0242292  20.8466760  30.9082607   6.6121602
  12.6002452  21.2533079   8.2773344  11.9530367  21.9523029   8.1837821
  13.3703468  21.6869223   8.6449592  16.0081250  31.5181931  11.3523897
  15.8566756  31.2892483  10.4353981  15.9985930  32.4752532  11.3655242
  12.7766586  29.0913844   6.3370164  13.7058646  29.2425003   6.1639131
  12.3557616  29.1797865   5.4818810  11.5754918  33.1164508   4.1068702
  11.4366004  32.7483293   4.9794640  10.7869514  33.6312148   3.9352659
  13.1260133  32.4946111   1.4957539  12.7909966  32.4546881   2.3915189
  12.6264079  31.8290827   1.0227950   7.1004377  27.9013741   7.0210120
   6.9624175  27.1693980   7.6221659   8.0109301  27.8122641   6.7394308
   9.7286678  27.6133700   6.5093800  10.4386297  26.9726892   6.4680419
   9.6855986  27.8646595   7.4319981  17.7173457  34.5501054   9.4300379
  17.6586003  33.8660274   8.7630962  18.1192975  35.2920044   8.9781005
   8.4415612  24.5998918   8.3289440   7.9052969  24.1489657   8.9811036
   7.8532320  24.7344827   7.5859904  17.7190864  32.5140638   7.6614359
  16.8317643  32.1766559   7.7840758  18.2889415  31.7823669   7.8983124
  11.2492017  37.1742090   4.6275602  11.1762189  37.9797061   5.1394907
  10.8069410  37.3734056   3.8023624  22.2008205  27.9248855   2.4230921
  22.1898081  28.8073570   2.0524854  21.3325584  27.5720406   2.2285458
  13.7090701  37.0728924   6.7833761  14.4218673  37.7076389   6.7109662
  13.2180730  37.1692790   5.9673763   8.7602614  34.8223367   7.6039332
   9.4612074  35.4559850   7.7568726   8.2897729  35.1638099   6.8434971
  16.5603900  27.3767975   5.4291882  15.9075351  27.6243882   4.7744335
  16.9384280  26.5632113   5.0954359  12.6091473  28.1187786  11.9157919
  11.9332110  28.0181915  12.5860294  13.4319107  27.9627000  12.3793916
  11.3514256  39.4254713   6.1515535  11.9032564  39.5886335   6.9164620
  11.6920450  40.0159151   5.4795560   5.8031022  23.8452996  10.4010454
   6.4303061  23.4630073  11.0147978   4.9458941  23.6267198  10.7666147
  16.2025131  34.2515971  12.0064190  16.7465035  34.8645929  11.5119144
  15.6211975  34.8095549  12.5231203  14.4882644  37.3736689   3.1379217
  14.3633783  36.5726429   2.6290163  15.1461735  37.8682882   2.6493187
  16.5517552  35.1745709   4.7658767  15.6047887  35.0551060   4.6937094
  16.9000325  34.2868207   4.8485029   8.9117125  21.0639848   8.5897009
   9.4351527  21.3102144   9.3523319   8.6929459  21.8959883   8.1700147
  13.5563985  34.9698425   0.9663120  13.4088948  34.0415133   1.1470690
  14.3817479  34.9918516   0.4820195  17.1598107  35.7926984   2.0527992
  18.0844655  35.5869845   1.9152443  16.9913410  35.5443385   2.9617334
  10.1169670  22.0053543   6.2746680   9.7766491  21.2061356   6.6767360
   9.4108677  22.3055254   5.7023513  12.0047235  23.2061864   4.6299998
  11.7465012  24.1278935   4.6284329  11.4732275  22.8092299   5.3200463
  16.9493423  36.3112651  -2.5909916  17.1230301  35.7459074  -3.3436064
  17.4422315  37.1113546  -2.7730426   2.7670383  28.3227320   5.4753643
   2.2223851  29.0987128   5.6073917   3.6449733  28.6698125   5.3172764
  22.8032814  29.0749074  -0.9719616  23.2463961  28.3256400  -1.3700493
  21.9259325  29.0659211  -1.3545884   3.5536405  27.4497217   8.3683799
   2.8118141  27.5979852   8.9548430   3.2329149  27.7105482   7.5050549
  19.8360019  33.0779121  -3.9625687  20.3611343  33.4166394  -4.6876367
  19.7482371  32.1426137  -4.1462553  11.4980068  36.9913195   8.1664189
  11.8067194  36.7462342   9.0386889  12.2955550  37.1959833   7.6783060
   9.0399079  23.1670902  12.0624374   9.0887235  24.0433024  11.6802143
   9.5821594  22.6248295  11.4896017  19.5253925  33.7112025  11.3425511
  18.7349469  33.6936164  10.8030010  19.2887280  34.2500319  12.0974547
  19.6451800  30.5604491   8.6558239  19.6949805  30.3954499   9.5973762
  19.5365723  29.6931750   8.2656120  16.9355562  26.5435419   9.9717546
  17.8365425  26.4041884   9.6801544  17.0103537  26.7089874  10.9115723
  11.2698368  23.9202274   8.8170732  10.4001677  24.2135840   8.5453321
  11.5057848  24.5042719   9.5377996  21.1469997  32.9801433   8.9000261
  20.8554805  33.3431413   9.7363722  20.5342128  32.2668441   8.7213593
  22.3465679  30.5454313   1.4202831  23.1812571  30.9844117   1.5840391
  22.4824808  30.0692966   0.6011077  19.3957185  28.1034047   7.3680319
  19.8711307  28.2961694   6.5599170  18.4722750  28.1593233   7.1223703
  13.9737402  20.1381891   6.3336153  14.4919345  20.8742918   6.0082641
  13.6192534  20.4445884   7.1682912  18.0958854  24.9799808   5.6008624
  19.0476277  25.0797905   5.6220848  17.9262305  24.1878076   6.1106709
  16.1173234  22.0655391   5.7868025  15.5223166  22.3460403   5.0914514
  15.8322930  22.5549292   6.5584766  20.5746932  28.2005927   4.7150924
  20.5423252  27.2621928   4.9010608  21.1847556  28.2789964   3.9816749
  20.7241420  24.9916971   4.7609207  20.2080469  24.2075427   4.5739136
  21.6081369  24.6635687   4.9255727  26.3923482  29.2621934   3.8556961
  27.1226870  29.0007222   4.4164664  25.7830427  28.5250656   3.8959029
  24.4738779  27.4029797   4.4531412  23.7471942  27.2685762   3.8447904
  24.0586066  27.7106625   5.2588130  12.2968955  31.1219726  12.2178785
  13.2171965  31.2998325  12.4118832  12.2618538  30.1775772  12.0658484
   5.2931028  29.0320761   4.8601566   5.5117038  29.9637869   4.8789600
   5.7056802  28.6728735   5.6456370  10.1658893  24.6053967  14.2504315
  10.0655620  25.5548324  14.1816406   9.9480435  24.2772206  13.3780385
  10.0290163  28.0351106  13.0669377   9.5457245  28.8351466  13.2733266
  10.1151102  28.0459050  12.1136821   5.9563501  31.9255640   5.1037811
   6.9106754  31.8939583   5.0367742   5.7576024  31.4646264   5.9188037
   6.5462883  30.4956756   7.6708608   7.3655772  30.9900835   7.6943446
   6.8199691  29.5788724   7.6426176  22.0916574  23.6241649   1.8064844
  22.6861065  23.3837385   1.0958152  22.1643157  22.9048779   2.4338380
  24.3987647  26.9307850   0.5808265  23.8387205  27.0001039   1.3539827
  23.7931150  26.7548834  -0.1392239   1.7997797  24.8294890   8.3700805
   2.4456661  24.3193844   8.8588031   1.5914948  25.5663572   8.9444231
  14.3251189  31.8975738  13.8692946  15.1942349  32.0716390  13.5079581
  13.8457941  32.7170155  13.7468675   8.4937369  39.0172839   5.5482380
   9.3964616  39.0496449   5.8648875   8.2674740  38.0873290   5.5628715
   6.1395288  21.9762507  12.4675820   7.0026750  21.6199312  12.6779144
   5.5660699  21.6376402  13.1551224  25.9843665  43.6064364   3.2738221
  26.6222075  43.4871111   2.5701561  25.8664508  44.5545208   3.3326173
  22.7933371  43.5591792   3.2099745  22.4551883  43.4432856   2.3220280
  23.6623139  43.1582957   3.1900751  23.2753154  44.7126643   9.1685951
  23.2641795  44.3179442   8.2966454  23.4373794  43.9792716   9.7619722
  19.9960415  47.4963755   8.1165135  19.7050281  48.4009386   8.0011801
  20.6317400  47.5380283   8.8309204  20.9216622  44.8740604   4.7066494
  21.5180195  44.6496626   3.9923457  20.9791594  44.1325349   5.3091942
  28.4618781  34.9812625   5.7119016  28.1302106  35.8508036   5.4880231
  27.8664394  34.6648909   6.3913046  24.9550300  47.1825171   5.1114928
  24.6551024  48.0850210   5.0030736  24.6101360  46.9157354   5.9636081
  18.4062782  43.6338968   1.1451633  17.4813278  43.5015182   1.3529325
  18.6547195  44.4133187   1.6421575  28.3547444  39.7007711   2.7912366
  27.4464322  39.6323119   2.4971127  28.3035040  40.1779656   3.6194191
  22.4288310  41.1197357  10.7347263  21.6521644  41.6791277  10.7250128
  23.0678873  41.6054140  11.2562133  30.2209091  37.9024149   4.5690240
  29.5783471  38.1956683   3.9230034  29.7164019  37.7877070   5.3743436
  20.6834682  43.9282810  10.2965230  21.4249367  44.4667854  10.0200054
  19.9771668  44.5549099  10.4536782  26.1590022  46.0711950   8.8937392
  26.5673378  45.6294361   8.1492024  25.4367284  45.4964578   9.1471584
  22.5121092  41.0084557   6.2670949  23.3582287  41.4323971   6.4105598
  22.4519730  40.3518181   6.9609512  25.6620537  38.6688926   7.9252122
  25.4181469  39.4230986   7.3886398  25.9380468  39.0474273   8.7599369
  27.6159000  45.2127538   6.6029388  27.8275895  45.8559298   5.9263769
  27.5688748  44.3789854   6.1351318  25.2185229  37.8245359   3.5065960
  24.3569708  38.1226612   3.7982697  25.2447664  38.0415757   2.5746993
  18.9270880  45.9159031   2.8519529  19.4972237  46.3446299   2.2137013
  19.5178991  45.6341615   3.5503714  19.4196046  41.0822458  11.0980540
  18.7894707  41.7638739  11.3315937  19.3132134  40.9705540  10.1533678
  22.4961432  47.6383537   6.9312456  22.5605864  48.1003944   7.7670627
  21.7872355  47.0080902   7.0594765  12.9978722  41.0024745   4.4561455
  13.2486760  41.8871754   4.7219031  13.5338270  40.8229346   3.6836547
  18.6976789  35.3843224  13.4605791  18.3043734  34.8309422  14.1353435
  19.5142929  35.6953802  13.8512309  21.6144750  36.8001103  11.0526048
  22.3554463  37.4008256  10.9730510  21.8462673  36.0578741  10.4944090
  16.7586088  41.9857470   9.3304277  16.6439603  41.0842728   9.6311376
  15.9030606  42.2321167   8.9789094  23.8377926  49.9275211  10.9291778
  23.3941780  49.1411589  10.6112682  24.4995139  50.1154361  10.2635669
  18.5965047  51.4571012   5.4552457  19.1472472  51.3288076   4.6829450
  17.7576523  51.7565901   5.1047349  25.9359164  50.2078011   8.9573179
  25.9177639  51.0286892   8.4653448  26.8579084  50.0832086   9.1823320
  22.3932218  47.7222140   9.7996688  22.9260555  46.9610428   9.5695996
  21.8646299  47.4295792  10.5420842  25.5601913  32.8282206   5.3290329
  25.2166182  33.7183848   5.2529440  25.9280875  32.6383864   4.4659914
  23.1099307  37.6640518  -1.1051997  22.2540903  37.2747368  -1.2846358
  23.5226258  37.7432479  -1.9652212  24.6398453  35.1986861   3.2939563
  24.1363249  35.1616996   2.4807368  24.9329060  36.1079604   3.3536219
  20.8841339  35.2825591   2.3005744  21.7494336  35.0868400   1.9411634
  20.9518848  35.0535943   3.2275101  18.4903658  37.5127799  -0.3277889
  19.0647410  37.2902980  -1.0604696  19.0774641  37.5816493   0.4250712
  20.7926326  34.3869048  -1.6002819  20.1390738  34.0718065  -2.2246205
  20.7506800  33.7644788  -0.8742996  24.0264066  40.8750981   2.7244828
  23.1086628  41.0965928   2.5666516  24.4424210  40.9497292   1.8656536
  27.3589578  32.0875765   0.4308067  27.6648455  31.2273129   0.1433982
  28.0842183  32.6793385   0.2307061  21.6310658  42.3829558   0.9384258
  21.6859268  41.4303395   0.8626735  20.8201860  42.5388997   1.4225557
  19.5703018  41.0006618  -1.3025363  18.7570884  41.3000789  -0.8960171
  20.0662012  40.6062307  -0.5850881  25.1677230  41.4648442   7.5289531
  25.5226617  41.6919916   8.3883997  25.8149361  41.7966819   6.9066786
  19.0617093  38.5724973   4.3135872  19.7016472  38.4313733   3.6158835
  18.2294623  38.2859487   3.9374474  17.5370635  39.9563056   6.2607683
  18.2093688  39.7480418   5.6120332  16.7100421  39.7585142   5.8212916
  23.4396207  36.5824997   8.2773344  22.7924122  37.2814946   8.1837821
  24.2097222  37.0161140   8.6449592  26.8475005  46.8473849  11.3523897
  26.6960511  46.6184400  10.4353981  26.8379684  47.8044450  11.3655242
  23.6160341  44.4205761   6.3370164  24.5452401  44.5716921   6.1639131
  23.1951371  44.5089782   5.4818810  22.4148673  48.4456426   4.1068702
  22.2759758  48.0775210   4.9794640  21.6263269  48.9604065   3.9352659
  17.9398132  43.2305659   7.0210120  17.8017930  42.4985897   7.6221659
  18.8503055  43.1414559   6.7394308  20.5680433  42.9425618   6.5093800
  21.2780051  42.3018810   6.4680419  20.5249741  43.1938513   7.4319981
  28.5567211  49.8792971   9.4300379  28.4979757  49.1952191   8.7630962
  28.9586730  50.6211961   8.9781005  19.2809367  39.9290836   8.3289440
  18.7446724  39.4781574   8.9811036  18.6926075  40.0636745   7.5859904
  28.5584618  47.8432555   7.6614359  27.6711397  47.5058477   7.7840758
  29.1283170  47.1115586   7.8983124  15.0148488  39.0646844   5.4142434
  14.9306676  38.4572513   4.6792844  14.1931194  39.5555862   5.4151930
  25.1872202  37.5500407   0.7812629  25.6840901  36.7970369   0.4613699
  24.4159183  37.5864724   0.2155838  21.7707170  39.6917790   0.5084314
  21.4004958  39.1388830   1.1965219  22.2666263  39.0875924  -0.0440686
  19.5996369  50.1515285   7.6039332  20.3005828  50.7851768   7.7568726
  19.1291484  50.4930017   6.8434971  27.6291196  34.5170001   2.9291988
  26.7154276  34.7474227   3.0974195  28.0584298  34.6008445   3.7806020
  27.3997655  42.7059893   5.4291882  26.7469105  42.9535800   4.7744335
  27.7778035  41.8924031   5.0954359  23.4485228  43.4479704  11.9157919
  22.7725865  43.3473833  12.5860294  24.2712862  43.2918917  12.3793916
  17.1672504  37.1021781   6.7537420  17.2313831  37.9636612   6.3414817
  17.1039624  36.4895782   6.0209778  16.6424777  39.1744913  10.4010454
  17.2696815  38.7921991  11.0147978  15.7852695  38.9559115  10.7666147
  27.0418885  49.5807889  12.0064190  27.5858789  50.1937847  11.5119144
  26.4605730  50.1387467  12.5231203  16.9484566  39.0577339   2.3156357
  16.2271152  39.6713307   2.1763831  17.7377822  39.5935104   2.2373003
  19.7510880  36.3931766   8.5897009  20.2745282  36.6394062   9.3523319
  19.5323213  37.2251800   8.1700147  20.9563425  37.3345461   6.2746680
  20.6160245  36.5353274   6.6767360  20.2502431  37.6347172   5.7023513
  21.6079897  34.4194773   4.7274003  22.4305966  33.9455251   4.6052893
  21.8517960  35.1985257   5.2272689  19.1318475  41.1113894   2.5365981
  18.9863056  41.4254197   3.4290263  18.6543679  41.7298794   1.9836880
  20.9914858  38.1016442   2.5846871  20.9776427  37.2057535   2.2479169
  21.7087286  38.1087105   3.2185157  22.8440989  38.5353782   4.6299998
  22.5858767  39.4570853   4.6284329  22.3126029  38.1384216   5.3200463
  13.6064138  43.6519238   5.4753643  13.0617606  44.4279046   5.6073917
  14.4843487  43.9990043   5.3172764  20.3951754  36.9830822  -2.1465559
  20.5167665  36.0547468  -1.9474671  20.1053797  36.9969508  -3.0587243
  23.2642945  34.6685732   0.9901161  23.2864641  34.7325066   0.0353140
  23.6811004  33.8290241   1.1841667  14.3930159  42.7789134   8.3683799
  13.6511896  42.9271770   8.9548430  14.0722904  43.0397400   7.5050549
  22.3373822  52.3205113   8.1664189  22.6460949  52.0754259   9.0386889
  23.1349304  52.5251751   7.6783060  19.8792834  38.4962819  12.0624374
  19.9280989  39.3724942  11.6802143  20.4215348  37.9540212  11.4896017
  30.3647679  49.0403943  11.3425511  29.5743223  49.0228081  10.8030010
  30.1281034  49.5792236  12.0974547  30.4845555  45.8896409   8.6558239
  30.5343559  45.7246416   9.5973762  30.3759478  45.0223668   8.2656120
  27.7749317  41.8727337   9.9717546  28.6759180  41.7333802   9.6801544
  27.8497291  42.0381792  10.9115723  22.1092122  39.2494192   8.8170732
  21.2395432  39.5427758   8.5453321  22.3451603  39.8334637   9.5377996
  31.9863751  48.3093351   8.9000261  31.6948560  48.6723331   9.7363722
  31.3735883  47.5960359   8.7213593  30.2350940  43.4325965   7.3680319
  30.7105061  43.6253611   6.5599170  29.3116505  43.4885151   7.1223703
  24.8131156  35.4673809   6.3336153  25.3313100  36.2034836   6.0082641
  24.4586289  35.7737802   7.1682912  25.0643750  31.8874091   1.8537049
  25.3445504  31.2197280   2.4797476  25.8494357  32.0803187   1.3411713
  28.9352609  40.3091725   5.6008624  29.8870031  40.4089823   5.6220848
  28.7656059  39.5169994   6.1106709  26.9566988  37.3947308   5.7868025
  26.3616920  37.6752321   5.0914514  26.6716685  37.8841209   6.5584766
  31.5635175  40.3208888   4.7609207  31.0474224  39.5367345   4.5739136
  32.4475123  39.9927605   4.9255727  29.2245902  34.0649904   0.7205020
  29.0270723  33.7564992   1.6048352  29.8345607  34.7911543   0.8502950
  23.1362710  46.4511644  12.2178785  24.0565719  46.6290243  12.4118832
  23.1012293  45.5067689  12.0658484  16.1324782  44.3612679   4.8601566
  16.3510792  45.2929786   4.8789600  16.5450556  44.0020653   5.6456370
  23.0529000  34.8680764  -3.1522745  22.2429728  34.5227849  -2.7767499
  23.7413417  34.5588308  -2.5635134  24.9819548  33.9458811  -1.5298449
  25.5350587  34.3654264  -0.8708426  25.2189635  33.0194559  -1.4875493
  21.0052648  39.9345884  14.2504315  20.9049375  40.8840241  14.1816406
  20.7874190  39.6064123  13.3780385  26.8101922  35.4564394   0.1801536
  27.3101700  35.5680928  -0.6284145  27.4537530  35.1525447   0.8202344
  20.8683918  43.3643023  13.0669377  20.3850999  44.1643383  13.2733266
  20.9544857  43.3750968  12.1136821  16.7957255  47.2547558   5.1037811
  17.7500509  47.2231500   5.0367742  16.5969779  46.7938182   5.9188037
  17.3856637  45.8248674   7.6708608  18.2049526  46.3192753   7.6943446
  17.6593445  44.9080642   7.6426176  12.6391552  40.1586808   8.3700805
  13.2850415  39.6485762   8.8588031  12.4308703  40.8955490   8.9444231
  25.1644944  47.2267655  13.8692946  26.0336103  47.4008308  13.5079581
  24.6851695  48.0462072  13.7468675  19.3331124  54.3464756   5.5482380
  20.2358371  54.3788367   5.8648875  19.1068494  53.4165207   5.5628715
  24.9747281  31.0169629  -1.6229362  24.2079677  30.4628116  -1.4772679
  25.3857986  31.0891498  -0.7615210  16.9789043  37.3054425  12.4675820
  17.8420504  36.9491230  12.6779144  16.4054453  36.9668320  13.1551224
  29.5370543  50.7135142  13.4605791  29.1437489  50.1601340  14.1353435
  30.3536684  51.0245720  13.8512309  32.4538504  52.1293021  11.0526048
  33.1948218  52.7300174  10.9730510  32.6856427  51.3870659  10.4944090
  27.4818531  54.5036831  10.4010454  28.1090570  54.1213908  11.0147978
  26.6246450  54.2851033  10.7666147  30.7186588  53.8254737  12.0624374
  30.7674744  54.7016860  11.6802143  31.2609103  53.2832130  11.4896017
  31.8446402  55.2637802  14.2504315  31.7443129  56.2132159  14.1816406
  31.6267944  54.9356041  13.3780385  23.4785306  55.4878726   8.3700805
  24.1244170  54.9777680   8.8588031  23.2702457  56.2247407   8.9444231
  27.8182797  52.6346343  12.4675820  28.6814259  52.2783147  12.6779144
  27.2448208  52.2960237  13.1551224  28.5567212  26.8855094  -3.8454314
  28.4979759  26.2014314  -4.5123731  28.9586731  27.6274084  -4.2973688
  27.0418886  26.5870011  -1.2690504  27.5858790  27.1999969  -1.7635549
  26.4605731  27.1449590  -0.7523491  30.3647681  26.0466065  -1.9329183
  29.5743224  26.0290204  -2.4724683  30.1281035  26.5854359  -1.1780146
  31.9863753  25.3155473  -4.3754433  31.6948561  25.6785454  -3.5390972
  31.3735884  24.6022481  -4.5541100  25.1644945  24.2329778   0.5938253
  26.0336105  24.4070430   0.2324887  24.6851696  25.0524195   0.4713982
  29.5370545  27.7197264   0.1851098  29.1437490  27.1663463   0.8598742
  30.3536685  28.0307843   0.5757615  32.4538506  29.1355143  -2.2228646
  33.1948219  29.7362296  -2.3024183  32.6856428  28.3932781  -2.7810603
  27.4818532  31.5098954  -2.8744239  28.1090571  31.1276031  -2.2606715
  26.6246451  31.2913156  -2.5088547  30.7186590  30.8316860  -1.2130320
  30.7674745  31.7078982  -1.5952550  31.2609104  30.2894253  -1.7858676
  31.8446403  32.2699925   0.9749622  31.7443130  33.2194282   0.9061713
  31.6267945  31.9418164   0.1025692  23.4785307  32.4940848  -4.9053888
  24.1244171  31.9839802  -4.4166663  23.2702458  33.2309530  -4.3310463
  27.8182798  29.6408465  -0.8078874  28.6814260  29.2845270  -0.5975549
  27.2448209  29.3022360  -0.1203469
  56.8697625  56.8697625  56.8697625 109.4712190 109.4712190 109.4712190
