default_name
 11979
  24.9302347  41.3437086  33.1006370  24.7642861  40.3924182  33.6062137
  23.6983378  40.2598687  33.7913705  25.3008682  40.3861392  34.5549703
  25.2619343  39.2222786  32.7553202  25.7713350  39.4236371  31.6529674
  25.6788352  38.2696178  33.5829530  25.2048545  38.1223306  34.4625825
  26.8428890  37.4463991  33.2787888  27.6918250  38.0800413  33.0236670
  27.2358853  36.6054850  34.4950631  28.0396406  37.1343554  35.0072864
  26.3637743  36.5519772  35.1467220  27.6936640  35.2055162  34.1498500
  28.9258824  34.9847355  33.5477712  29.5565505  35.8329033  33.3274756
  29.3484269  33.7084313  33.2303900  30.3101168  33.5587411  32.7622496
  28.5365716  32.6316170  33.5141201  28.9530204  31.3590346  33.1998996
  28.3384394  30.7256883  33.6022884  27.3058833  32.8235162  34.1126609
  26.6678598  31.9811643  34.3362841  26.8929058  34.1049412  34.4260113
  25.9333527  34.2635903  34.8937347  26.5586541  36.5401973  32.0847747
  25.4568520  36.0078042  31.9532010  27.5573308  36.3738166  31.2245024
  28.4755045  36.7345219  31.4411775  27.3586367  35.7169515  29.9382497
  26.3028604  35.7380699  29.6679471  28.1361154  36.4445741  28.8395353
  29.0771405  36.8031088  29.2566968  28.3415717  35.7409748  28.0327914
  27.3961791  37.5417550  28.3320776  27.9043943  37.9804797  27.6459015
  27.7954586  34.2577773  30.0099041  28.9749149  33.9680447  30.2101737
  26.8385547  33.3503861  29.8473006  25.4864269  33.6654288  29.4762594
  25.5205121  34.2510911  28.5575983  25.0530233  34.2677681  30.2746626
  24.7860378  32.3723301  29.3007375  24.5070946  32.2598562  28.2530547
  23.8875025  32.3692910  29.9177678  25.7304898  31.3016795  29.7306616
  25.8243977  30.6668060  28.8496304  25.3788586  30.7047753  30.5721843
  27.0851402  31.9298089  30.0659835  27.4793203  31.7698619  31.0692711
  28.1126407  31.4058336  29.0689040  28.6943212  30.3403839  29.2720687
  28.3293249  32.1626409  27.9970553  27.7038260  32.9262801  27.7832663
  29.4390072  31.9031164  27.0881625  29.9861089  31.0169970  27.4105370
  28.9448019  31.6521489  25.6506709  28.4047120  32.5299628  25.2937008
  30.1202843  31.3971418  24.7203550  29.7510088  31.2222488  23.7085289
  30.6719511  30.5207880  25.0624980  30.7799141  32.2661094  24.7212530
  28.0722811  30.5150068  25.6343822  27.2034518  30.8352333  25.7960601
  30.4108420  33.0778479  27.0827772  29.9950711  34.2325539  26.9878636
  31.6999778  32.7739597  27.1860002  32.0670716  31.8617603  27.3558042
  32.7420973  33.7781088  27.0054357  32.4075762  34.7367889  27.4008673
  34.0097275  33.3763272  27.7611190  33.7261368  32.7587791  28.6051449
  34.5999926  32.7750564  27.0813532  34.7335374  34.5374429  28.2115717
  36.2187314  34.3853645  28.7584026  36.6268426  35.7332034  29.2286720
  36.1780686  33.2998468  29.7708881  36.9982271  34.0119820  27.5202310
  33.0523313  33.9644266  25.5233931  33.0591736  35.0890144  25.0235846
  33.3062216  32.8570224  24.8337289  33.4354513  31.5006337  25.2905639
  32.5142654  31.2422376  25.8128169  34.2704116  31.4691790  25.9905288
  33.6682825  30.6554051  24.0943285  32.7390389  30.1324396  23.8682478
  34.4421660  29.9291210  24.3427577  34.0964160  31.5221582  22.9572257
  33.5676776  31.2044758  22.0585530  35.1654740  31.5722837  22.7505810
  33.5863826  32.8931757  23.4031179  34.2643614  33.7163614  23.1762960
  32.2998173  33.1148374  22.6135632  31.2632268  33.4454912  23.1876662
  32.3793999  32.9307876  21.2996567  33.2671465  32.7039891  20.8747241
  31.2192411  33.0928827  20.4320302  30.5619869  33.8668585  20.8290835
  31.6551963  33.5256215  19.0297927  32.5065768  34.2000581  19.1213669
  31.9524841  32.6402848  18.4677438  30.6018569  34.1849672  18.3493036
  30.8996764  34.4456720  17.4746972  30.4227659  31.7946542  20.3566040
  29.2002747  31.8190961  20.2123414  31.1239413  30.6700264  20.4546216
  32.1275764  30.7089681  20.5609201  30.4885084  29.3608103  20.3664034
  29.4312601  29.4754880  20.1273658  31.1302046  28.5274805  19.2546599
  30.7893267  27.5001958  19.3834530  30.7616012  28.9157182  18.3051847
  32.6416444  28.5609199  19.2596944  33.3309025  29.7434724  19.0247329
  32.7676003  30.6457989  18.8380635  34.7130832  29.7795284  19.0279732
  35.2290949  30.7100828  18.8438903  35.4231080  28.6235783  19.2682110
  36.7992981  28.6549800  19.2726553  37.0878084  29.5201723  18.9406537
  34.7622360  27.4341031  19.5046911  35.3181755  26.5262493  19.6931607
  33.3809025  27.4087809  19.4989878  32.8561410  26.4835204  19.6824255
  30.5911753  28.6264210  21.6977658  31.6159461  28.7030508  22.3768995
  29.5262665  27.9186508  22.0618409  28.7444146  27.8220071  21.4298069
  29.4285804  27.3053795  23.3811565  29.9409980  27.9234832  24.1183708
  27.9646893  27.1872206  23.8092994  27.9140273  26.5889020  24.7189958
  27.5777663  28.1862544  24.0101032  27.1853218  26.5737561  22.7966649
  27.1895863  25.6503680  22.9708780  30.0874389  25.9305575  23.3811629
  29.9650143  25.1795056  22.4142875  30.7822654  25.6127879  24.4695726
  30.8071202  26.3308065  25.7136572  29.8179156  26.7712556  25.8384737
  31.5459092  27.1242208  25.6005928  31.1526254  25.3877004  26.8052263
  30.2905708  24.8586868  27.2115579  31.7098699  25.8521058  27.6188033
  32.0278386  24.4754853  26.0130480  32.0340722  23.5372949  26.5678982
  33.0528938  24.8120954  25.8579511  31.3336371  24.2772151  24.6637466
  31.9636110  24.0073927  23.8165933  30.2142131  23.2469475  24.7623608
  30.4005299  22.0852583  24.3995604  29.0574675  23.6811218  25.2517628
  28.8536530  24.6702767  25.2632339  28.0701168  22.7651640  25.8115536
  28.3107563  21.7405001  25.5294817  28.0446446  22.8340044  27.3496584
  27.0737437  22.4936853  27.7132518  29.1220733  21.9383945  27.9409793
  30.1004678  22.2648567  27.5884652  29.0894123  21.9994999  29.0287746
  28.9496962  20.9079763  27.6301338  28.2667938  24.1853486  27.7744874
  27.4814330  24.4684754  28.2047368  26.6802075  23.0859706  25.2748038
  26.5032870  24.0568372  24.5380059  25.7027972  22.2671745  25.6491876
  25.8006224  21.5004462  26.2802636  24.3310010  22.4511862  25.1920185
  24.2921826  23.2372461  24.4370748  23.8004817  21.1657418  24.5548922
  24.5454610  20.3885492  24.6779635  22.9173564  20.8835834  25.1139068
  23.5075275  21.3610643  23.1587791  22.6124234  20.3042314  22.3779321
  23.1648304  20.2296067  21.0007380  22.6422487  19.0591370  23.1865360
  21.2541151  20.9634353  22.3545689  23.4327246  22.8704189  26.3515760
  23.8279096  22.7728888  27.5139488  22.2317977  23.3348929  26.0256302
  21.3290058  23.8691723  27.0077902  21.9151659  24.4234837  27.7407673
  20.8297257  23.0340428  27.4990916  20.3808355  24.7364548  26.2615536
  20.6058353  25.7742531  26.5074173  19.3700941  24.4963580  26.5914879
  20.5404099  24.4756157  24.8012889  20.4715013  25.4209153  24.2629960
  19.8472451  23.7573758  24.3633920  21.9692970  23.9359655  24.7233330
  22.1051060  23.1940977  23.9364632  22.9406702  25.0823495  24.4590476
  23.7876551  25.3879430  25.2973568  22.8077078  25.7064661  23.2940195
  22.0985586  25.4080774  22.6396718  23.6943787  26.7952770  22.9031646
  24.7342401  26.4894609  23.0186190  23.4769561  27.1631697  21.4336995
  23.9296616  28.1367661  21.2459042  23.9598339  26.4119064  20.8087735
  22.0086785  27.2317322  21.0618113  21.2914478  28.1380700  21.4844210
  21.5553192  26.2693547  20.2667988  20.5849253  26.2651485  19.9867672
  22.1830175  25.5460956  19.9458754  23.4647937  28.0158988  23.7876543
  24.4067959  28.7380631  24.1127321  22.2110885  28.2350472  24.1701934
  21.4990729  27.5426913  23.9864093  21.8136782  29.4811504  24.8164913
  22.4836753  30.2868251  24.5154827  20.3952422  29.8727659  24.3982502
  20.1651718  30.8208017  24.8844549  20.4045741  30.0122794  23.3172558
  19.3435860  28.8504245  24.7650299  18.8091599  27.9998879  23.8063171
  19.1573898  28.0799504  22.7877990  17.8478654  27.0639194  24.1368272
  17.4449297  26.4118826  23.3754622  17.4090904  26.9687963  25.4398092
  16.4520470  26.0380625  25.7726703  16.3898534  25.9923166  26.7398989
  17.9237449  27.8029514  26.4129001  17.5812055  27.7303045  27.4352426
  18.8848150  28.7353464  26.0716113  19.2932167  29.3912254  26.8260222
  21.8941889  29.3456679  26.3329202  21.8559982  30.3430876  27.0527011
  22.0058342  28.1086725  26.8066676  22.0073477  27.3236699  26.1711615
  22.0809068  27.8396867  28.2375847  22.3865665  28.7403538  28.7701040
  20.7126328  27.4196267  28.7775585  20.2453634  26.7464206  28.0588429
  20.8559417  26.8975806  29.7236189  19.8773801  28.5455332  28.9816678
  20.3324902  29.2907235  28.6326359  23.1135895  26.7538804  28.5229970
  22.7838426  25.7132053  29.0918874  24.3555401  27.0050375  28.1243143
  24.8057093  28.1848509  27.4374833  24.4509450  29.0535252  27.9921432
  24.3628083  28.1846516  26.4415226  26.2857675  28.0998085  27.3981190
  26.7140891  28.6155607  28.2575603  26.6628397  28.5500490  26.4798590
  26.5834722  26.6379694  27.4358868  27.4710903  26.4832028  28.0493038
  26.7508775  26.2195992  26.4433942  25.3748967  25.9634485  28.0899263
  25.0367971  25.1316610  27.4729010  25.6408113  25.4294398  29.4932175
  26.2701057  26.1020230  30.3091135  25.1566950  24.2209026  29.7630455
  24.6858559  23.6935176  29.0417446  25.2557684  23.6352615  31.0942457
  24.9553955  24.3650408  31.8453165  24.3379942  22.4069290  31.2394824
  24.3271454  21.8480997  30.3025778  24.8462047  21.4906096  32.3421622
  24.8634437  22.0334347  33.2872248  24.1861201  20.6278016  32.4313236
  25.8537412  21.1530483  32.0992153  23.0073630  22.8357862  31.5557673
  23.0591101  23.3099648  32.3655986  26.6934261  23.2220531  31.3892663
  27.3166635  22.5164652  30.5964544  27.2089490  23.6660357  32.5311252
  26.7478436  24.2694938  33.1783649  28.5315790  23.2549752  32.9855479
  28.8532080  23.8856062  33.8152650  28.5027506  21.8083714  33.4832842
  27.5877700  21.3435642  33.1355290  29.3400742  21.3032779  33.0187512
  28.5772353  21.7525293  34.9196249  27.7901399  20.6222335  35.7136742
  28.2993653  19.3243943  35.2003040  27.9965705  20.9069938  37.1556035
  26.3621557  20.8281623  35.2680831  29.5520725  23.4025389  31.8619052
  30.1488927  22.4180778  31.4268822  29.7442158  24.6340069  31.4015702
  29.2590777  25.8410589  32.0135634  29.3833542  25.7470749  33.0923695
  28.1993740  25.9380421  31.7775098  30.0687399  26.9429108  31.4411166
  30.8303719  27.2395757  32.1622309  29.4190735  27.7921738  31.2294864
  30.6818716  26.4155960  30.1866710  31.7325922  26.6981762  30.2517362
  30.2570310  26.8084776  29.2629534  30.5505479  24.8917714  30.2147716
  30.1006414  24.4110362  29.3461941  31.9547732  24.3228795  30.3894472
  32.6239382  24.6051128  31.3830993  32.3894834  23.5241342  29.4205664
  31.7535744  23.2137260  28.6998960  33.7625406  23.0356290  29.3879559
  34.0291911  22.6084181  30.3555893  33.9149725  21.9362156  28.3356510
  34.3377425  22.3746847  27.4317098  34.5936212  21.1755610  28.7215793
  32.6648823  21.3431245  28.0322738  32.3637592  20.9231890  28.8176431
  34.7299487  24.1773981  29.0977286  34.5502216  24.9167084  28.1295570
  35.7484666  24.3132147  29.9396747  35.8475700  23.6784174  30.7189775
  36.4237464  25.0512724  29.8005062  42.8003051  17.5046091   8.8885745
  47.6350117  36.6228862  40.9386284  24.6692538  28.5286471  10.0575278
  22.9842364  53.4002102  48.5398499  47.3153590  46.1871461  21.1892300
  22.5315023  -2.4420883  24.9882623  24.7851148  30.2384554  59.6006116
  24.1112847  30.5416251  60.2091074  25.1716970  31.0413634  59.2511573
  28.7507889  27.8170037  60.8745939  29.4458793  28.4376730  61.0933254
  29.0931039  26.9665389  61.1498317  22.8422757  27.9231789  59.7821033
  22.2696724  28.5421976  59.3291505  23.4155551  28.4731151  60.3160955
  26.0620017  28.2068939  60.9129615  26.9950690  28.1414501  61.1162490
  25.9743230  29.0425206  60.4544148  28.6908034  27.5234810  57.8733563
  28.6121665  27.1894673  58.7669320  29.5117700  28.0156577  57.8725035
  26.2611985  24.8402805  57.4943541  26.9647836  25.0452807  58.1101196
  25.5374634  25.4079567  57.7592624  28.1698683  25.2785334  59.5442001
  29.0044287  24.8466533  59.3619476  28.0083026  25.1067348  60.4718895
  29.5050918  31.5770109  57.2574860  28.6280385  31.4558910  56.8937107
  29.9808671  30.7856187  57.0053749  32.2506227  32.5134496  57.0591970
  31.3437683  32.2167609  57.1354684  32.5282208  32.2164314  56.1926257
  31.0205012  29.3721431  57.2003950  31.8824176  29.6976329  57.4599767
  31.2055356  28.5852927  56.6877015  31.9734455  26.6117474  60.4883659
  31.9613125  27.5559314  60.6451929  32.8657877  26.4287620  60.1943120
  24.7851149   7.2446676  46.3251423  24.1112848   7.5478373  46.9336380
  25.1716971   8.0475757  45.9756880  28.7507890   4.8232160  47.5991246
  29.4458795   5.4438853  47.8178560  29.0931040   3.9727511  47.8743624
  22.8422758   4.9293912  46.5066339  22.2696726   5.5484099  46.0536811
  23.4155552   5.4793273  47.0406261  26.0620018   5.2131062  47.6374922
  26.9950691   5.1476623  47.8407797  25.9743231   6.0487329  47.1789454
  28.6908035   4.5296932  44.5978869  28.6121666   4.1956796  45.4914627
  29.5117702   5.0218700  44.5970341  26.2611987   1.8464928  44.2188847
  26.9647837   2.0514930  44.8346503  25.5374635   2.4141689  44.4837931
  28.1698684   2.2847457  46.2687308  29.0044288   1.8528655  46.0864782
  28.0083027   2.1129470  47.1964202  36.7982959  12.8017108  56.3642484
  37.4361369  12.6823855  55.6605824  36.6803802  13.7497952  56.4230436
  29.4659481  14.6080012  52.2900900  28.9024346  14.5169949  51.5217188
  29.3511876  13.7879917  52.7703392  35.0459040  18.2750980  47.6015365
  34.3947020  18.8605060  47.2149379  35.8403403  18.8057175  47.6610402
  28.9714667  15.3640117  48.0002499  29.7445543  14.8169104  47.8615375
  29.3240066  16.2284367  48.2116961  31.3080945  11.5232783  45.6320949
  31.5606466  11.0014305  44.8704412  30.3705504  11.3598929  45.7347633
  36.3524228  10.5268562  53.4395692  37.1387317  10.1087985  53.0886109
  36.6162932  11.4314654  53.6077341  36.5234305  15.9641412  48.1384349
  35.8880138  16.0376039  48.8505254  36.1931711  16.5535011  47.4603428
  31.0277234  13.4260889  47.8345324  30.9113492  12.7505793  48.5026408
  31.1379494  12.9393263  47.0177477  33.3708775  12.8871036  51.5392013
  33.0066982  12.3601657  52.2504935  34.2275890  12.4969505  51.3658499
  33.0114262   7.9160936  46.5353362  33.1788664   8.7841172  46.9023833
  32.8211431   8.0788218  45.6114651  32.9903482  10.3718594  47.5200029
  32.8703108  10.8175644  48.3585509  32.2956071  10.7203911  46.9613567
  30.7510375  23.1422235  51.1690160  30.6734404  24.0930060  51.2478640
  30.1472018  22.7968108  51.8265086  38.6888549  10.8440067  48.3480363
  39.6006405  11.0767454  48.1728060  38.1798196  11.4277111  47.7855441
  37.2958131  15.8265885  55.7393944  36.6666993  15.9911599  55.0370012
  36.9083793  16.2407495  56.5104908  41.1747363  16.7620323  53.0938308
  40.4898401  17.1419224  52.5435341  41.2591212  17.3715650  53.8270256
  32.8486093  15.5640293  53.0044029  33.3124438  15.8427996  52.2148652
  32.5842891  14.6623738  52.8217120  31.7854979  11.6863446  49.8133594
  32.4879022  12.1384489  50.2807521  31.4535607  11.0447265  50.4413487
  33.0248743  18.5004388  49.8895700  32.8894418  19.3455924  50.3180547
  33.5658556  18.7023666  49.1261633  26.4778141  16.0179826  50.4623625
  26.9902661  16.8123077  50.6129189  27.1300854  15.3206117  50.3957226
  28.2873026  19.1345583  52.5446378  28.4639654  20.0563547  52.3567362
  29.0829859  18.8204002  52.9740758  24.4427058  14.3468481  51.2383195
  25.2802280  14.7565489  51.0216903  24.6205325  13.4067923  51.2083389
  36.3391490  12.0143561  46.9267028  35.8238113  12.7848166  47.1655416
  36.0668798  11.3408697  47.5500090  33.9238601   6.8593262  51.9852267
  33.0680197   6.4700112  51.8057905  34.3365553   6.9385223  51.1252052
  41.3125764  14.7675916  48.8620202  40.5355207  14.4287075  48.4175364
  41.9917245  14.7728539  48.1875167  36.1277793   9.8870653  48.7526809
  35.8227928  10.2016803  49.6036953  37.0808235   9.9652073  48.7954142
  34.5724225  16.0460877  50.4019763  34.0445586  15.3113636  50.0893001
  34.0711727  16.8235553  50.1559732  39.5517071  14.2409897  55.5186810
  38.8940745  14.9309159  55.6066938  40.3557470  14.6306329  55.8620796
  38.3622530  12.5954270  53.5690751  38.8754411  13.2284262  54.0712461
  39.0123753  11.9955465  53.2034111  29.6312539   8.7385004  46.7822260
  28.7949852   9.0759691  47.1031535  29.4917309   8.6033984  45.8449397
  32.7176825  13.8641087  43.4054736  31.8103887  13.6330340  43.6045885
  33.2147857  13.0678706  43.5928718  35.6244904  22.5738594  46.3251423
  34.9506603  22.8770291  46.9336380  36.0110726  23.3767674  45.9756880
  35.6238408  11.4695141  50.9451772  36.3710227  11.9816538  50.6358894
  35.8929998  11.1479194  51.8056166  33.8965058  13.9653682  47.9278726
  32.9876278  13.6812715  48.0251196  33.9260142  14.3852760  47.0682033
  39.1284326  17.5760271  51.6969894  38.6746653  16.7351181  51.7535084
  38.4978292  18.2121670  52.0344674  38.0717245   8.5052257  52.9270561
  37.3340002   7.9929644  53.2580804  38.3244019   8.0652639  52.1153838
  37.5717265  19.4136768  52.6319712  37.8640239  19.9741825  51.9132078
  38.0815886  19.7065329  53.3872871  33.5941146  15.5062426  45.2666805
  33.1560576  14.7898284  44.8072442  34.3351587  15.7338540  44.7051896
  30.3842312  10.1959362  51.7878901  29.5710178  10.4953533  52.1944093
  30.8801307   9.8015051  52.5053383  32.5350890  20.1917119  53.7213165
  32.4927069  20.4177965  52.7921697  33.4513589  19.9580494  53.8698967
  41.7114261  13.7819623  51.3243124  41.5732160  13.9721219  50.3964313
  41.3550480  14.5439005  51.7811175  30.6516691  17.0680148  53.5175128
  31.4457289  16.5730468  53.3157703  29.9408383  16.5398011  53.1542834
  35.4711535  19.4498244  57.8687496  35.5248558  20.0189180  58.6365212
  34.6026317  19.6200129  57.5041533  26.9599454  11.2123230  49.5934881
  26.0297043  11.1507685  49.8104843  27.0556926  10.6899183  48.7971522
  33.2287967  17.6409170  57.1972965  33.0899053  17.2727955  58.0698903
  32.4402563  18.1556810  57.0256923  33.8236119  22.7418267  48.5398502
  33.9987875  22.2706310  49.3544124  33.1368907  23.3684033  48.7679762
  34.7793182  17.0190773  54.5861803  34.4443015  16.9791543  55.4819453
  34.2797128  16.3535489  54.1132213  37.7152374  14.3646807  44.8598863
  37.0981544  13.6393635  44.7631915  37.2468862  15.1256167  44.5165937
  28.3897204  25.8907629  55.3138362  28.6293802  26.5226153  55.9917380
  27.5466401  25.5395669  55.6003721  29.5050920   8.5832231  43.9820167
  28.6280386   8.4621032  43.6182414  29.9808673   7.7918310  43.7299056
  32.9025066  21.6986752  57.7179866  32.8295238  22.5041723  58.2299170
  32.4602459  21.8978718  56.8927887  32.6914846  20.9358522  51.2282687
  31.9082368  21.4780202  51.3220912  33.3907591  21.4532501  51.6276929
  35.3623750  21.5973586  59.8738025  36.0751722  22.2321051  59.8013926
  34.8713778  21.6937452  59.0578026  37.0841277  15.5024838  51.4455316
  36.1497555  15.6226301  51.2760021  37.2617945  14.5997305  51.1815326
  40.4713828  11.3442158  51.9805350  40.9374280  12.1770149  51.9065653
  40.9221328  10.8787139  52.6850609  38.5390059  17.6885979  48.9791502
  38.8149903  17.5742574  49.8885376  37.6694558  17.2903464  48.9403675
  35.1744123  21.9372330  52.6224316  35.3566518  21.1193986  53.0852068
  35.9977109  22.1540022  52.1849206  35.5086289  20.8640515  49.8839364
  36.0374055  20.3532970  49.2709527  35.7714508  20.5483045  50.7484897
  28.8642036  21.9155632  52.6437140  28.1952412  22.4001759  52.1601180
  28.7254906  22.1624852  53.5580519  33.0047305  23.9499375  59.2419799
  33.5565613  24.1130997  60.0068884  33.3453498  24.5403813  58.5699824
  24.2329614  10.1774087  49.4233073  24.5283055   9.2684765  49.3700126
  23.3317649  10.1561826  49.1014075  36.1415692  21.8981351  56.2283481
  36.0166832  21.0971091  55.7194426  36.7994783  22.3927544  55.7397451
  38.2050601  19.6990371  57.8563031  37.2580936  19.5795722  57.7841358
  38.5533374  18.8112869  57.9389292  35.2097034  19.4943087  54.0567383
  35.0621996  18.5659794  54.2374953  36.0350527  19.5163178  53.5724458
  29.0759278   8.1461154  49.9147875  29.4155351   8.6747075  49.1926484
  29.5231399   8.4841560  50.6906442  38.8131156  20.3171646  55.1432256
  39.7377703  20.1114507  55.0056707  38.6446459  20.0688047  56.0521597
  31.0627425   6.6435776  48.1141168  31.7835788   7.0217029  47.6104885
  30.4392730   7.3624653  48.2176146  35.2058548   7.3480925  49.0499500
  35.4222163   8.2305563  48.7488329  34.7252615   6.9567138  48.3205142
  38.6026472  20.8357313  50.4994347  38.7763350  20.2703736  49.7468200
  39.0955363  21.6358208  50.3173837  39.5901645  20.1524078  47.5991246
  40.2852549  20.7730770  47.8178560  39.9324795  19.3019429  47.8743624
  41.4893068  17.6023783  49.1278576  42.0144392  17.9411056  48.4027897
  41.4015420  16.6670799  48.9441711  33.1733728  23.6695766  53.4873830
  32.7338719  23.1772145  54.1806686  33.9241845  23.1268734  53.2465905
  25.6526067  19.8607307  53.4898458  26.4784087  19.5611079  53.1097101
  25.3020119  19.0914930  53.9388246  30.6207601  19.2133776  55.5596131
  29.9987610  18.5504481  55.2598359  31.2912467  19.2394907  54.8769779
  30.1821107  17.7637699  49.0354592  30.3309228  18.4473163  48.3821265
  30.9887551  17.7442789  49.5504048  27.9373740  13.7902877  50.0415661
  27.6919782  12.8865207  50.2395871  28.1069655  13.7920027  49.0995139
  27.2069388   9.5231234  47.5401822  26.5138633   9.5975589  46.8841858
  26.9621140   8.7591578  48.0623339  33.6816513  20.2585829  46.5066339
  33.1090480  20.8776016  46.0536811  34.2549307  20.8085191  47.0406261
  36.9013773  20.5422979  47.6374922  37.8344446  20.4768541  47.8407797
  36.8136986  21.3779246  47.1789454  39.5301789  19.8588850  44.5978869
  39.4515421  19.5248713  45.4914627  40.3511456  20.3510618  44.5970341
  34.0663311  11.5946642  43.8482392  35.0122416  11.4652850  43.9170810
  33.6877556  10.8561304  44.3251820  32.2506229   9.5196618  43.7837277
  31.3437684   9.2229731  43.8599991  32.5282210   9.2226437  42.9171563
  31.0205013   6.3783554  43.9249256  31.8824177   6.7038452  44.1845074
  31.2055357   5.5915050  43.4122322  39.1737650   5.2512080  51.0684479
  38.5936319   5.9096884  50.6862532  38.9073582   4.4289425  50.6571897
  37.9562528   7.4112171  50.1240828  37.0688383   7.6961821  49.9061022
  38.3716517   7.2505934  49.2768104  25.9646778  21.9919922  55.2112272
  25.8301246  21.2320323  54.6450270  25.5478840  22.7160822  54.7441061
  37.1005741  17.1756845  44.2188847  37.8041591  17.3806848  44.8346503
  36.3768390  17.7433607  44.4837931  37.9303551  12.9266706  50.3391118
  37.8738753  13.3835258  49.4998750  38.4831894  12.1657391  50.1613960
  29.1215904  22.8889239  55.4230715  29.0048288  23.8334671  55.3209405
  28.3008350  22.5862800  55.8116514  39.0092439  17.6139374  46.2687308
  39.8438043  17.1820573  46.0864782  38.8476782  17.4421388  47.1964202
  38.6638331  14.1171488  47.6343647  38.6087135  13.9515759  46.6932091
  38.0384386  14.8247521  47.7905837  31.9734456   3.6179597  47.2128965
  31.9613126   4.5621437  47.3697236  32.8657878   3.4349742  46.9188426
  30.1470418  23.5417501  58.6386643  31.0497665  23.5741111  58.9553138
  29.9207788  22.6117952  58.6532979  31.9024020  22.2948487  55.2996722
  30.9519651  22.2950349  55.1861094  32.2056506  21.5481222  54.7832757
  40.3053236  29.9371930  52.2900900  39.7418101  29.8461867  51.5217188
  40.1905631  29.1171834  52.7703392  37.8517668  31.4323122  55.1285120
  38.6438960  31.0913946  54.7131420  38.0914318  31.5418097  56.0487274
  45.8852794  33.6042898  47.6015365  45.2340774  34.1896978  47.2149379
  46.6797157  34.1349093  47.6610402  39.8108422  30.6932035  48.0002499
  40.5839298  30.1461022  47.8615375  40.1633820  31.5576284  48.2116961
  42.1474699  26.8524701  45.6320949  42.4000220  26.3306222  44.8704412
  41.2099258  26.6890846  45.7347633  47.1917982  25.8560479  53.4395692
  47.9781071  25.4379903  53.0886109  47.4556687  26.7606572  53.6077341
  47.3628060  31.2933330  48.1384349  46.7273893  31.3667956  48.8505254
  47.0325466  31.8826929  47.4603428  41.8670988  28.7552807  47.8345324
  41.7507246  28.0797710  48.5026408  41.9773248  28.2685181  47.0177477
  44.2102529  28.2162954  51.5392013  43.8460736  27.6893575  52.2504935
  45.0669645  27.8261423  51.3658499  43.8508016  23.2452854  46.5353362
  44.0182418  24.1133090  46.9023833  43.6605185  23.4080135  45.6114651
  40.0595831  28.1583630  54.2355897  39.1346327  28.0259844  54.4433588
  40.3080244  28.9377849  54.7325839  43.8297237  25.7010511  47.5200029
  43.7096862  26.1467562  48.3585509  43.1349825  26.0495829  46.9613567
  37.4204642  27.8016903  55.0699686  37.5497023  28.0551382  55.9839097
  36.7402093  28.3944611  54.7504341  49.5282303  26.1731984  48.3480363
  50.4400159  26.4059371  48.1728060  49.0191950  26.7569029  47.7855441
  43.6879847  30.8932211  53.0044029  44.1518193  31.1719914  52.2148652
  43.4236645  29.9915656  52.8217120  42.6248733  27.0155363  49.8133594
  43.3272777  27.4676407  50.2807521  42.2929362  26.3739182  50.4413487
  36.3674067  25.2738916  55.1150728  35.5773121  25.5296445  54.6390839
  36.8585315  26.0887254  55.2202768  38.3188813  25.6383495  52.0734205
  37.5219976  25.7502190  52.5917700  38.0914405  25.9770147  51.2075095
  34.6511770  25.5269406  57.5465719  34.9019809  26.4116416  57.8123295
  35.1871319  25.3474008  56.7740811  43.8642498  33.8296306  49.8895700
  43.7288173  34.6747842  50.3180547  44.4052310  34.0315584  49.1261633
  37.3171895  31.3471744  50.4623625  37.8296416  32.1414994  50.6129189
  37.9694608  30.6498034  50.3957226  39.1266780  34.4637500  52.5446378
  39.3033408  35.3855465  52.3567362  39.9223614  34.1495920  52.9740758
  35.2820812  29.6760398  51.2383195  36.1196034  30.0857407  51.0216903
  35.4599080  28.7359840  51.2083389  47.1785244  27.3435479  46.9267028
  46.6631868  28.1140084  47.1655416  46.9062553  26.6700615  47.5500090
  44.7632355  22.1885180  51.9852267  43.9073952  21.7992030  51.8057905
  45.1759307  22.2677141  51.1252052  42.5374388  19.8070253  55.3910008
  43.4027385  19.6113061  55.0315898  42.6051897  19.5780605  56.3179365
  52.1519518  30.0967834  48.8620202  51.3748961  29.7578993  48.4175364
  52.8310999  30.1020457  48.1875167  46.9671547  25.2162571  48.7526809
  46.6621683  25.5308720  49.6036953  47.9201990  25.2943991  48.7954142
  45.4117979  31.3752794  50.4019763  44.8839341  30.6405554  50.0893001
  44.9105482  32.1527471  50.1559732  40.1436707  22.0372461  52.7626375
  40.7180459  21.8147642  52.0299568  40.7307689  22.1061155  53.5154976
  40.4706294  24.0676922  46.7822260  39.6343606  24.4051608  47.1031535
  40.3311064  23.9325901  45.8449397  42.4459375  18.9113710  51.4901444
  41.7923787  18.5962727  50.8658059  42.4039849  18.2889450  52.2161267
  43.5570579  29.1933005  43.4054736  42.6497641  28.9622258  43.6045885
  44.0541611  28.3970624  43.5928718  46.4638658  37.9030512  46.3251423
  45.7900357  38.2062209  46.9336380  46.8504480  38.7059592  45.9756880
  45.6797115  25.3995643  55.8149092  44.7619676  25.6210590  55.6570780
  46.0957259  25.4741954  54.9560799  46.4632163  26.7987059  50.9451772
  47.2103982  27.3108456  50.6358894  46.7323752  26.4771112  51.8056166
  44.7358813  29.2945600  47.9278726  43.8270032  29.0104632  48.0251196
  44.7653897  29.7144678  47.0682033  48.9111000  23.8344175  52.9270561
  48.1733757  23.3221561  53.2580804  49.1637773  23.3944557  52.1153838
  35.3046983  27.0151114  51.9093929  35.1071383  26.4220474  51.1844995
  34.7493647  26.7103324  52.6269867  43.2843707  26.9074220  54.0288522
  43.3392317  25.9548057  53.9530998  42.4734909  27.0633659  54.5129820
  44.4334901  30.8354343  45.2666805  43.9954331  30.1190202  44.8072442
  45.1745342  31.0630458  44.7051896  41.2236067  25.5251280  51.7878901
  40.4103932  25.8245450  52.1944093  41.7195061  25.1306969  52.5053383
  52.5508015  29.1111540  51.3243124  52.4125914  29.3013136  50.3964313
  52.1944234  29.8730923  51.7811175  40.7150142  23.0969635  57.4040136
  41.3549521  22.9558394  56.7063099  39.8827672  22.8104149  57.0278738
  41.4910445  32.3972066  53.5175128  42.2851044  31.9022386  53.3157703
  40.7802138  31.8689929  53.1542834  37.7993209  26.5415148  49.5934881
  36.8690797  26.4799603  49.8104843  37.8950681  26.0191100  48.7971522
  37.7178758  23.0669960  52.1813122  37.9785575  23.9815294  52.0722283
  38.5395930  22.5994403  52.3309735  39.1903683  24.4807718  59.3511947
  39.8626737  24.2725080  58.7024596  38.3633470  24.2829804  58.9117179
  44.6629873  38.0710184  48.5398502  44.8381629  37.5998227  49.3544124
  43.9762661  38.6975950  48.7679762  48.5546128  29.6938725  44.8598863
  47.9375299  28.9685553  44.7631915  48.0862617  30.4548085  44.5165937
  40.3444674  23.9124149  43.9820167  39.4674141  23.7912950  43.6182414
  40.8202427  23.1210227  43.7299056  31.8646814  28.7001309  54.0761674
  32.5517854  28.3863039  53.4882689  31.7094943  29.6042673  53.8028925
  36.6681536  23.5891505  58.5046698  36.5839725  22.9817175  57.7697108
  35.8464243  24.0800524  58.5056194  46.8405250  22.0745069  53.8716893
  47.3373950  21.3215031  53.5517963  46.0692232  22.1109386  53.3060102
  47.9235031  30.8316756  51.4455316  46.9891310  30.9518219  51.2760021
  48.1011699  29.9289223  51.1815326  43.4240219  24.2162452  53.5988577
  43.0538007  23.6633492  54.2869483  43.9199312  23.6120585  53.0463577
  51.3107582  26.6734075  51.9805350  51.7768035  27.5062067  51.9065653
  51.7615083  26.2079057  52.6850609  49.3783813  33.0177897  48.9791502
  49.6543657  32.9034491  49.8885376  48.5088312  32.6195382  48.9403675
  31.4414790  26.7801902  56.3479141  31.4798890  26.2465493  57.1416259
  30.9355083  26.2537108  55.7290118  38.8205553  21.6266443  59.8441683
  38.8846879  22.4881274  59.4319081  38.7572673  21.0140444  59.1114042
  35.0723368  25.5066004  49.4233073  35.3676809  24.5976683  49.3700126
  34.1711404  25.4853744  49.1014075  38.6017615  23.5822001  55.4060621
  37.8804201  24.1957969  55.2668094  39.3910871  24.1179766  55.3277267
  36.8011210  23.1880102  49.5472398  36.4723916  22.3077481  49.3647504
  37.1550580  23.1327771  50.4348787  39.9153033  23.4753072  49.9147875
  40.2549105  24.0038993  49.1926484  40.3625153  23.8133478  50.6906442
  41.9021180  21.9727693  48.1141168  42.6229542  22.3508946  47.6104885
  41.2786484  22.6916570  48.2176146  46.0452303  22.6772842  49.0499500
  46.2615917  23.5597480  48.7488329  45.5646370  22.2859056  48.3205142
  40.7851524  25.6358556  55.6270245  40.6396105  25.9498859  56.5194527
  40.3076728  26.2543456  55.0741144  42.6447907  22.6261104  55.6751135
  42.6309476  21.7302197  55.3383433  43.3620335  22.6331767  56.3089421
  35.2597186  28.1763900  58.5657906  34.7150654  28.9523708  58.6978181
  36.1376536  28.5234704  58.4077028  42.0484803  21.5075484  50.9438705
  42.1700714  20.5792130  51.1429592  41.7586845  21.5214170  50.0317020
  44.9175993  19.1930394  54.0805425  44.9397690  19.2569727  53.1257404
  45.3344052  18.3534903  54.2745931  50.4295399  35.4815995  47.5991246
  51.1246304  36.1022688  47.8178560  50.7718549  34.6311347  47.8743624
  52.3286822  32.9315701  49.1278576  52.8538146  33.2702974  48.4027897
  52.2409175  31.9962716  48.9441711  36.4919822  35.1899225  53.4898458
  37.3177842  34.8902997  53.1097101  36.1413874  34.4206847  53.9388246
  34.6928427  33.1085551  54.4487391  33.8560335  32.6807726  54.2671393
  34.6652072  33.3017995  55.3858183  41.0214862  33.0929617  49.0354592
  41.1702982  33.7765081  48.3821265  41.8281305  33.0734707  49.5504048
  38.7767495  29.1194794  50.0415661  38.5313537  28.2157124  50.2395871
  38.9463409  29.1211945  49.0995139  38.0463142  24.8523152  47.5401822
  37.3532387  24.9267507  46.8841858  37.8014894  24.0883495  48.0623339
  44.5210267  35.5877747  46.5066339  43.9484235  36.2067934  46.0536811
  45.0943061  36.1377109  47.0406261  47.7407527  35.8714897  47.6374922
  48.6738200  35.8060459  47.8407797  47.6530740  36.7071164  47.1789454
  50.3695544  35.1880767  44.5978869  50.2909175  34.8540631  45.4914627
  51.1905211  35.6802535  44.5970341  44.9057066  26.9238560  43.8482392
  45.8516171  26.7944768  43.9170810  44.5271311  26.1853222  44.3251820
  43.0899983  24.8488536  43.7837277  42.1831439  24.5521649  43.8599991
  43.3675964  24.5518354  42.9171563  34.0077924  26.1694900  54.2336323
  33.6880708  25.3160208  53.9410697  33.4611352  26.3843478  54.9894291
  44.7062049  19.3925426  49.9381518  43.8962777  19.0472511  50.3136764
  45.3946466  19.0832970  50.5269130  46.6352597  18.4703473  51.5605815
  47.1883636  18.8898926  52.2195838  46.8722683  17.5439221  51.6028771
  41.8598768  21.7075471  43.9249256  42.7217932  22.0330370  44.1845074
  42.0449112  20.9206967  43.4122322  33.8766184  29.7897811  56.2029445
  33.1829655  29.3751764  55.6899399  34.6239175  29.8318348  55.6062864
  50.0131404  20.5803998  51.0684479  49.4330073  21.2388802  50.6862532
  49.7467337  19.7581342  50.6571897  35.7902926  29.7216065  54.0795460
  35.7673614  29.8203752  53.1277343  36.1003563  30.5681216  54.4012626
  48.7956282  22.7404088  50.1240828  47.9082137  23.0253739  49.9061022
  49.2110271  22.5797852  49.2768104  47.9399496  32.5048763  44.2188847
  48.6435346  32.7098765  44.8346503  47.2162144  33.0725525  44.4837931
  48.7697306  28.2558624  50.3391118  48.7132507  28.7127176  49.4998750
  49.3225648  27.4949309  50.1613960  49.8486193  32.9431292  46.2687308
  50.6831797  32.5112491  46.0864782  49.6870536  32.7713306  47.1964202
  49.5032085  29.4463405  47.6343647  49.4480889  29.2807677  46.6932091
  48.8778141  30.1539438  47.7905837  42.8128211  18.9471514  47.2128965
  42.8006881  19.8913354  47.3697236  43.7051633  18.7641660  46.9188426
  51.1838429  39.2416067  43.9820167  50.3067895  39.1204868  43.6182414
  51.6596182  38.4502145  43.7299056  53.9293738  40.1780454  43.7837277
  53.0225193  39.8813567  43.8599991  54.2069719  39.8810272  42.9171563
  52.6992522  37.0367389  43.9249256  53.5611686  37.3622287  44.1845074
  52.8842866  36.2498885  43.4122322  53.6521965  34.2763432  47.2128965
  53.6400635  35.2205272  47.3697236  54.5445387  34.0933577  46.9188426
  30.7510376   0.1484358  37.8935467  30.6734405   1.0992183  37.9723947
  30.1472019  -0.1969770  38.5510393  28.3897205   2.8969752  42.0383669
  28.6293804   3.5288276  42.7162687  27.5466402   2.5457792  42.3249028
  28.8642038  -1.0782246  39.3682447  28.1952413  -0.5936118  38.8846487
  28.7254907  -0.8313025  40.2825826  33.0047306   0.9561498  45.9665105
  33.5565614   1.1193119  46.7314191  33.3453500   1.5465936  45.2945130
  25.9646779  -1.0017956  41.9357579  25.8301247  -1.7617555  41.3695577
  25.5478842  -0.2777056  41.4686368  29.1215905  -0.1048639  42.1476021
  29.0048289   0.8396794  42.0454712  28.3008352  -0.4075077  42.5361821
  30.1470419   0.5479623  45.3631950  31.0497666   0.5803233  45.6798445
  29.9207790  -0.3819926  45.3778286  40.3053237   6.9434053  39.0146207
  39.7418102   6.8523990  38.2462494  40.1905632   6.1233957  39.4948699
  37.8517669   8.4385244  41.8530427  38.6438961   8.0976069  41.4376726
  38.0914319   8.5480219  42.7732580  45.8852796  10.6105020  34.3260671
  45.2340775  11.1959101  33.9394685  46.6797158  11.1411215  34.3855709
  39.8108423   7.6994157  34.7247806  40.5839299   7.1523145  34.5860682
  40.1633822   8.5638407  34.9362267  41.6493465   9.0270540  47.9314705
  41.3583331   9.9316171  47.8161371  42.2850450   9.0687067  48.6458775
  42.5749672   6.4047388  44.5216065  43.1713244   6.1803411  43.8073028
  42.6324644   5.6632134  45.1241513  47.3628061   8.2995452  34.8629656
  46.7273894   8.3730079  35.5750560  47.0325467   8.8889051  34.1848735
  41.8670989   5.7614930  34.5590631  41.7507247   5.0859833  35.2271715
  41.9773249   5.2747303  33.7422784  44.2102530   5.2225077  38.2637320
  43.8460738   4.6955698  38.9750241  45.0669646   4.8323546  38.0903805
  46.6083350   8.7131955  44.9264499  46.3084074   9.6156994  44.8180306
  46.2634410   8.4464138  45.7785652  40.0595832   5.1645752  40.9601203
  39.1346328   5.0321966  41.1678895  40.3080245   5.9439971  41.4571146
  37.4204643   4.8079026  41.7944992  37.5497024   5.0613505  42.7084404
  36.7402094   5.4006734  41.4749647  41.5904130  15.4776276  37.8935467
  41.5128160  16.4284101  37.9723947  40.9865774  15.1322148  38.5510393
  48.1351887   8.1619925  42.4639251  47.5060749   8.3265640  41.7615319
  47.7477549   8.5761535  43.2350215  52.0141119   9.0974363  39.8183615
  51.3292157   9.4773265  39.2680648  52.0984968   9.7069690  40.5515562
  43.6879849   7.8994334  39.7289336  44.1518194   8.1782037  38.9393958
  43.4236647   6.9977778  39.5462427  40.5803930   7.4465815  42.6669099
  41.1505287   7.8753083  42.0286584  41.1712041   7.1648400  43.3653285
  36.3674069   2.2801039  41.8396035  35.5773123   2.5358567  41.3636145
  36.8585316   3.0949376  41.9448075  38.3188814   2.6445618  38.7979511
  37.5219977   2.7564312  39.3163007  38.0914406   2.9832270  37.9320402
  44.1494482   9.1690321  46.7462026  44.2138914   9.6310728  47.5820198
  43.4405405   8.5387686  46.8744336  34.6511772   2.5331529  44.2711025
  34.9019810   3.4178539  44.5368601  35.1871320   2.3536131  43.4986117
  43.8642499  10.8358429  36.6141006  43.7288174  11.6809964  37.0425854
  44.4052312  11.0377706  35.8506940  37.3171897   8.3533867  37.1868931
  37.8296417   9.1477117  37.3374496  37.9694609   7.6560157  37.1202533
  39.1266781  11.4699623  39.2691684  39.3033410  12.3917588  39.0812668
  39.9223615  11.1558042  39.6986064  38.4119138   3.5164255  49.1453848
  38.2972653   2.6149512  49.4460947  37.5563656   3.7627952  48.7938664
  40.2498097  12.9877797  45.2702027  40.8005522  12.8594860  44.4979021
  39.4109573  13.2872686  44.9196920  35.2820813   6.6822521  37.9628502
  36.1196035   7.0919529  37.7462210  35.4599081   5.7421963  37.9328696
  45.4117980   8.3814917  37.1265070  44.8839342   7.6467677  36.8138307
  44.9105483   9.1589593  36.8805038  50.3910827   6.5763937  42.2432116
  49.7334501   7.2663199  42.3312245  51.1951226   6.9660369  42.5866103
  43.5570581   6.1995127  30.1300043  42.6497642   5.9684381  30.3291192
  44.0541613   5.4032746  30.3174025  46.4638660  14.9092634  33.0496729
  45.7900358  15.2124331  33.6581687  46.8504482  15.7121715  32.7002186
  44.7358814   6.3007722  34.6524033  43.8270033   6.0166755  34.7496503
  44.7653898   6.7206801  33.7927340  49.9678082   9.9114312  38.4215201
  49.5140409   9.0705221  38.4780391  49.3372048  10.5475710  38.7589981
  48.4111021  11.7490808  39.3565019  48.7033995  12.3095865  38.6377384
  48.9209641  12.0419369  40.1118178  35.3046984   4.0213236  38.6339235
  35.1071384   3.4282597  37.9090302  34.7493648   3.7165446  39.3515174
  44.4334902   7.8416466  31.9912112  43.9954332   7.1252325  31.5317749
  45.1745343   8.0692581  31.4297203  43.3744646  12.5271159  40.4458472
  43.3320825  12.7532006  39.5167004  44.2907345  12.2934534  40.5944273
  41.4910447   9.4034188  40.2420435  42.2851045   8.9084509  40.0403010
  40.7802139   8.8752052  39.8788140  46.3105291  11.7852284  44.5932802
  46.3642313  12.3543220  45.3610518  45.4420073  11.9554169  44.2286839
  37.7993210   3.5477270  36.3180187  36.8690798   3.4861726  36.5350150
  37.8950682   3.0253223  35.5216829  45.2693391   5.9512546  46.1519734
  46.1985451   6.1023706  45.9788702  44.8484421   6.0396567  45.2968381
  44.0681723   9.9763210  43.9218272  43.9292808   9.6081995  44.7944210
  43.2796319  10.4910850  43.7502230  44.6629875  15.0772307  35.2643808
  44.8381630  14.6060350  36.0789431  43.9762663  15.7038073  35.4925069
  45.6186938   9.3544813  41.3107110  45.2836770   9.3145583  42.2064759
  45.1190884   8.6889529  40.8377520  39.5931182   4.7612443  46.8359691
  39.4550980   4.0292682  47.4371230  40.5036105   4.6721343  46.5543879
  48.5546130   6.7000847  31.5844169  47.9375300   5.9747676  31.4877222
  48.0862618   7.4610208  31.2411244  39.2290960  18.2261670  42.0383669
  39.4687558  18.8580194  42.7162687  38.3860156  17.8749710  42.3249028
  31.8646816   5.7063431  40.8006981  32.5517855   5.3925161  40.2127996
  31.7094944   6.6104796  40.5274232  43.7418822  14.0340792  44.4425173
  43.6688993  14.8395764  44.9544477  43.2996215  14.2332758  43.6173194
  43.5308601  13.2712562  37.9527994  42.7476123  13.8134242  38.0466219
  44.2301347  13.7886542  38.3522235  46.2017505  13.9327626  46.5983331
  46.9145478  14.5675091  46.5259233  45.7107534  14.0291492  45.7823333
  47.9235032   7.8378879  38.1700623  46.9891311   7.9580341  38.0005327
  48.1011701   6.9351346  37.9060633  41.2529419  11.6822070  47.4188902
  41.9538878  12.3158553  47.5718296  40.7824534  12.0236801  46.6584541
  49.3783815  10.0240019  35.7036809  49.6543659   9.9096614  36.6130683
  48.5088313   9.6257504  35.6648982  46.0137879  14.2726370  39.3469623
  46.1960273  13.4548026  39.8097375  46.8370865  14.4894062  38.9094513
  46.3480044  13.1994555  36.6084671  46.8767811  12.6887010  35.9954833
  46.6108264  12.8837086  37.4730204  36.8497137  11.2158425  44.3520005
  37.4350574  10.4702113  44.4847909  36.6521975  11.5262381  45.2356669
  39.7035792  14.2509672  39.3682447  39.0346167  14.7355800  38.8846487
  39.5648662  14.4978892  40.2825826  31.4414792   3.7864025  43.0724448
  31.4798891   3.2527616  43.8661566  30.9355085   3.2599230  42.4535425
  43.8441061  16.2853416  45.9665105  44.3959369  16.4485037  46.7314191
  44.1847254  16.8757853  45.2945130  35.0723369   2.5128127  36.1478379
  35.3676810   1.6038805  36.0945433  34.1711405   2.4915866  35.8259382
  46.9809448  14.2335391  42.9528788  46.8560588  13.4325131  42.4439733
  47.6388539  14.7281584  42.4642758  49.0444356  12.0344411  44.5808338
  48.0974692  11.9149762  44.5086664  49.3927130  11.1466909  44.6634599
  46.0490790  11.8297127  40.7812690  45.9015752  10.9013835  40.9620260
  46.8744283  11.8517218  40.2969765  49.6524912  12.6525686  41.8677563
  50.5771459  12.4468547  41.7302014  49.4840215  12.4042087  42.7766904
  49.4420228  13.1711354  37.2239654  49.6157105  12.6057776  36.4713507
  49.9349119  13.9712248  37.0419144  35.2597188   5.1826023  45.2903213
  34.7150656   5.9585831  45.4223487  36.1376537   5.5296827  45.1322334
  50.4295400  12.4878118  34.3236552  51.1246305  13.1084811  34.5423867
  50.7718550  11.6373469  34.5988930  36.0463209   4.3095919  48.1833370
  35.3044945   4.4578554  48.7698000  35.7255954   4.5704184  47.3200119
  52.3286823   9.9377823  35.8523883  52.8538147  10.2765096  35.1273203
  52.2409176   9.0024839  35.6687018  43.9906872  13.8511897  47.9813760
  44.2993999  13.6061044  48.8536459  44.7882354  14.0558536  47.4932630
  44.0127484  16.0049807  40.2119136  43.5732474  15.5126185  40.9051993
  44.7635601  15.4622774  39.9711212  36.4919823  12.1961348  40.2143764
  37.3177843  11.8965119  39.8342408  36.1413875  11.4268970  40.6633553
  41.4601356  11.5487816  42.2841438  40.8381366  10.8858521  41.9843666
  42.1306223  11.5748948  41.6015086  34.6928428  10.1147674  41.1732698
  33.8560336   9.6869848  40.9916699  34.6652074  10.3080117  42.1103489
  41.0214863  10.0991739  35.7599899  41.1702984  10.7827204  35.1066571
  41.8281307  10.0796829  36.2749354  38.7767496   6.1256917  36.7660967
  38.5313538   5.2219247  36.9641178  38.9463411   6.1274067  35.8240445
  44.5210269  12.5939870  33.2311646  43.9484236  13.2130057  32.7782118
  45.0943062  13.1439231  33.7651568  47.7407529  12.8777020  34.3620228
  48.6738202  12.8122581  34.5653104  47.6530741  13.7133287  33.9034761
  50.3695545  12.1942890  31.3224176  50.2909177  11.8602754  32.2159934
  51.1905212  12.6864658  31.3215648  34.0077925   3.1757022  40.9581630
  33.6880709   2.3222330  40.6656004  33.4611353   3.3905600  41.7139597
  37.7857832   5.8919463  44.6751137  38.0043842   6.8236571  44.6939170
  38.1983606   5.5327438  45.4605940  33.8766185   6.7959934  42.9274752
  33.1829656   6.3813886  42.4144706  34.6239176   6.8380470  42.3308171
  35.7902927   6.7278187  40.8040767  35.7673615   6.8265875  39.8522650
  36.1003564   7.5743338  41.1257933  38.4490305   8.7854342  44.9187381
  39.4033559   8.7538285  44.8517313  38.2502829   8.3244966  45.7337607
  39.0389687   7.3555458  47.4858179  39.8582576   7.8499537  47.5093016
  39.3126495   6.4387427  47.4575746  36.8040534  14.3273962  41.9357579
  36.6695002  13.5674363  41.3695577  36.3872596  15.0514862  41.4686368
  47.9399497   9.5110885  30.9434154  48.6435347   9.7160888  31.5591810
  47.2162146  10.0787647  31.2083238  39.9609660  15.2243279  42.1476021
  39.8442044  16.1688711  42.0454712  39.1402106  14.9216841  42.5361821
  49.8486194   9.9493415  32.9932614  50.6831798   9.5174613  32.8110089
  49.6870537   9.7775428  33.9209509  49.5032087   6.4525528  34.3588953
  49.4480890   6.2869799  33.4177398  48.8778142   7.1601561  34.5151143
  34.2924602   1.6893592  48.1850376  34.9383465   1.1792546  48.6737601
  34.0841753   2.4262274  48.7593801  40.9864174  15.8771541  45.3631950
  41.8891421  15.9095151  45.6798445  40.7601544  14.9471992  45.3778286
  42.7417776  14.6302527  42.0242029  41.7913407  14.6304389  41.9106401
  43.0450262  13.8835262  41.5078063  55.2860176  20.4190494  43.0249316
  54.9478687  20.3031559  42.1369850  56.1549944  20.0181659  43.0050322
  51.1446991  22.2725970  39.0146207  50.5811857  22.1815907  38.2462494
  51.0299386  21.4525875  39.4948699  48.6911423  23.7677162  41.8530427
  49.4832715  23.4267987  41.4376726  48.9308074  23.8772137  42.7732580
  50.6502177  23.0286075  34.7247806  51.4233053  22.4815062  34.5860682
  51.0027576  23.8930324  34.9362267  52.4887220  24.3562457  47.9314705
  52.1977086  25.2608088  47.8161371  53.1244204  24.3978985  48.6458775
  53.4143427  21.7339306  44.5216065  54.0106999  21.5095328  43.8073028
  53.4718398  20.9924051  45.1241513  52.9868455  19.1878741  32.3566256
  53.2393976  18.6660263  31.5949719  52.0493014  19.0244887  32.4592939
  52.7064744  21.0906847  34.5590631  52.5901002  20.4151751  35.2271715
  52.8167004  20.6039221  33.7422784  55.0496285  20.5516994  38.2637320
  54.6854492  20.0247615  38.9750241  55.9063401  20.1615463  38.0903805
  54.6901772  15.5806894  33.2598668  54.8576174  16.4487130  33.6269139
  54.4998941  15.7434176  32.3359958  50.8989586  20.4937670  40.9601203
  49.9740083  20.3613884  41.1678895  51.1474000  21.2731889  41.4571146
  54.6690993  18.0364552  34.2445335  54.5490618  18.4821602  35.0830816
  53.9743581  18.3849869  33.6858873  48.2598397  20.1370943  41.7944992
  48.3890779  20.3905422  42.7084404  47.5795849  20.7298651  41.4749647
  52.4297885  30.8068193  37.8935467  52.3521914  31.7576018  37.9723947
  51.8259528  30.4614066  38.5510393  54.5273603  23.2286251  39.7289336
  54.9911949  23.5073954  38.9393958  54.2630401  22.3269696  39.5462427
  51.4197684  22.7757733  42.6669099  51.9899041  23.2045001  42.0286584
  52.0105796  22.4940317  43.3653285  53.4642489  19.3509404  36.5378901
  54.1666532  19.8030447  37.0052827  53.1323118  18.7093222  37.1658794
  47.2067823  17.6092956  41.8396035  46.4166877  17.8650485  41.3636145
  47.6979070  18.4241294  41.9448075  49.1582568  17.9737536  38.7979511
  48.3613732  18.0856230  39.3163007  48.9308161  18.3124188  37.9320402
  54.9888236  24.4982239  46.7462026  55.0532669  24.9602646  47.5820198
  54.2799160  23.8679604  46.8744336  45.4905526  17.8623447  44.2711025
  45.7413564  18.7470457  44.5368601  46.0265074  17.6828048  43.4986117
  54.7036254  26.1650346  36.6141006  54.5681928  27.0101882  37.0425854
  55.2446066  26.3669624  35.8506940  48.1565651  23.6825784  37.1868931
  48.6690172  24.4769035  37.3374496  48.8088364  22.9852075  37.1202533
  49.9660536  26.7991541  39.2691684  50.1427164  27.7209505  39.0812668
  50.7617369  26.4849960  39.6986064  49.2512892  18.8456172  49.1453848
  49.1366407  17.9441430  49.4460947  48.3957410  19.0919869  48.7938664
  51.0891851  28.3169714  45.2702027  51.6399276  28.1886778  44.4979021
  50.2503327  28.6164603  44.9196920  46.1214568  22.0114439  37.9628502
  46.9589790  22.4211447  37.7462210  46.2992836  21.0713881  37.9328696
  55.6026111  14.5239220  38.7097573  54.7467707  14.1346070  38.5303212
  56.0153063  14.6031181  37.8497359  53.3768144  12.1424293  42.1155315
  54.2421140  11.9467102  41.7561204  53.4445652  11.9134645  43.0424671
  50.9830463  14.3726501  39.4871681  51.5574214  14.1501682  38.7544874
  51.5701445  14.4415195  40.2400283  51.3100050  16.4030962  33.5067567
  50.4737362  16.7405648  33.8276841  51.1704819  16.2679942  32.5694704
  53.2853130  11.2467750  38.2146751  52.6317543  10.9316767  37.5903366
  53.2433604  10.6243490  38.9406574  54.3964335  21.5287045  30.1300043
  53.4891397  21.2976298  30.3291192  54.8935367  20.7324664  30.3174025
  55.5752569  21.6299640  34.6524033  54.6663788  21.3458673  34.7496503
  55.6047652  22.0498718  33.7927340  46.1440739  19.3505154  38.6339235
  45.9465139  18.7574515  37.9090302  45.5887403  19.0457364  39.3515174
  54.1237463  19.2428260  40.7533828  54.1786072  18.2902097  40.6776305
  53.3128665  19.3987699  41.2375127  55.2728656  23.1708383  31.9912112
  54.8348086  22.4544242  31.5317749  56.0139097  23.3984498  31.4297203
  52.0629823  17.8605320  38.5124207  51.2497688  18.1599491  38.9189399
  52.5588817  17.4661009  39.2298690  54.2138400  27.8563077  40.4458472
  54.1714579  28.0823923  39.5167004  55.1301099  27.6226452  40.5944273
  51.5543897  15.4323676  44.1285442  52.1943277  15.2912435  43.4308406
  50.7221428  15.1458189  43.7524044  52.3304201  24.7326106  40.2420435
  53.1244800  24.2376426  40.0403010  51.6195894  24.2043969  39.8788140
  48.6386965  18.8769188  36.3180187  47.7084553  18.8153643  36.5350150
  48.7344437  18.3545141  35.5216829  48.5572514  15.4024001  38.9058429
  48.8179331  16.3169334  38.7967590  49.3789686  14.9348443  39.0555042
  50.0297439  16.8161758  46.0757254  50.7020492  16.6079120  45.4269903
  49.2027226  16.6183844  45.6362486  54.9075477  25.3055128  43.9218272
  54.7686563  24.9373912  44.7944210  54.1190073  25.8202767  43.7502230
  55.5023629  30.4064225  35.2643808  55.6775385  29.9352268  36.0789431
  54.8156417  31.0329991  35.4925069  50.4324936  20.0904361  46.8359691
  50.2944734  19.3584600  47.4371230  51.3429860  20.0013261  46.5543879
  53.0607237  19.8024320  46.3243370  53.7706856  19.1617512  46.2829989
  53.0176545  20.0537215  47.2469551  50.0684714  33.5553587  42.0383669
  50.3081313  34.1872111  42.7162687  49.2253911  33.2041627  42.3249028
  51.1838430  16.2478189  30.7065474  50.3067896  16.1266990  30.3427720
  51.6596183  15.4564268  30.4544362  42.7040570  21.0355349  40.8006981
  43.3911610  20.7217079  40.2127996  42.5488699  21.9396714  40.5274232
  47.5075292  15.9245546  45.2292004  47.4233481  15.3171215  44.4942414
  46.6857999  16.4154564  45.2301501  54.5812576  29.3632710  44.4425173
  54.5082748  30.1687681  44.9544477  54.1389969  29.5624676  43.6173194
  54.3702356  28.6004480  37.9527994  53.5869878  29.1426160  38.0466219
  55.0695101  29.1178459  38.3522235  54.2633975  16.5516492  40.3233884
  53.8931762  15.9987533  41.0114790  54.7593067  15.9474626  39.7708884
  52.0923173  27.0113987  47.4188902  52.7932633  27.6450470  47.5718296
  51.6218288  27.3528719  46.6584541  47.6890891  26.5450342  44.3520005
  48.2744328  25.7994030  44.4847909  47.4915730  26.8554299  45.2356669
  50.5429547  29.5801590  39.3682447  49.8739922  30.0647717  38.8846487
  50.4042416  29.8270810  40.2825826  42.2808546  19.1155942  43.0724448
  42.3192646  18.5819533  43.8661566  41.7748839  18.5891148  42.4535425
  54.6834815  31.6145333  45.9665105  55.2353123  31.7776955  46.7314191
  55.0241009  32.2049771  45.2945130  49.6599308  13.9620483  46.5686990
  49.7240635  14.8235314  46.1564388  49.5966429  13.3494485  45.8359349
  45.9117124  17.8420045  36.1478379  46.2070565  16.9330723  36.0945433
  45.0105160  17.8207784  35.8259382  49.4411371  15.9176041  42.1305928
  48.7197957  16.5312009  41.9913401  50.2304627  16.4533806  42.0522574
  47.6404965  15.5234142  36.2717704  47.3117672  14.6431521  36.0892810
  47.9944336  15.4681811  37.1594094  50.7546789  15.8107112  36.6393182
  51.0942861  16.3393033  35.9171790  51.2018909  16.1487518  37.4151749
  52.7414936  14.3081734  34.8386475  53.4623298  14.6862986  34.3350192
  52.1180240  15.0270610  34.9421453  51.6245280  17.9712596  42.3515552
  51.4789861  18.2852899  43.2439833  51.1470484  18.5897496  41.7986450
  53.4841663  14.9615144  42.3996441  53.4703232  14.0656237  42.0628739
  54.2014091  14.9685808  43.0334727  46.0990942  20.5117940  45.2903213
  45.5544410  21.2877748  45.4223487  46.9770292  20.8588745  45.1322334
  52.8878559  13.8429524  37.6684011  53.0094470  12.9146170  37.8674899
  52.5980601  13.8568210  36.7562327  55.7569749  11.5284435  40.8050731
  55.7791446  11.5923768  39.8502711  56.1737808  10.6888943  40.9991237
  46.8856964  19.6387837  48.1833370  46.1438700  19.7870472  48.7698000
  46.5649708  19.8996102  47.3200119  54.8300627  29.1803815  47.9813760
  55.1387753  28.9352962  48.8536459  55.6276109  29.3850453  47.4932630
  54.8521239  31.3341724  40.2119136  54.4126229  30.8418103  40.9051993
  55.6029356  30.7914692  39.9711212  47.3313578  27.5253265  40.2143764
  48.1571598  27.2257037  39.8342408  46.9807630  26.7560888  40.6633553
  52.2995111  26.8779733  42.2841438  51.6775120  26.2150439  41.9843666
  52.9699978  26.9040865  41.6015086  45.5322183  25.4439592  41.1732698
  44.6954091  25.0161766  40.9916699  45.5045828  25.6372035  42.1103489
  51.8608618  25.4283657  35.7599899  52.0096738  26.1119121  35.1066571
  52.6675061  25.4088747  36.2749354  49.6161251  21.4548834  36.7660967
  49.3707293  20.5511164  36.9641178  49.7857165  21.4565985  35.8240445
  48.8856898  17.1877192  34.2647129  48.1926143  17.2621547  33.6087165
  48.6408650  16.4237536  34.7868646  55.3604023  27.9231787  33.2311646
  54.7877990  28.5421974  32.7782118  55.9336817  28.4731149  33.7651568
  53.9293739  17.1842576  30.5082584  53.0225194  16.8875689  30.5845297
  54.2069720  16.8872395  29.6416870  44.8471679  18.5048940  40.9581630
  44.5274464  17.6514248  40.6656004  44.3005107  18.7197518  41.7139597
  48.6251587  21.2211381  44.6751137  48.8437597  22.1528489  44.6939170
  49.0377361  20.8619355  45.4605940  55.5455805  11.7279466  36.6626825
  54.7356533  11.3826551  37.0382071  56.2340222  11.4187010  37.2514437
  52.6992524  14.0429512  30.6494563  53.5611687  14.3684410  30.9090380
  52.8842868  13.2561008  30.1367629  44.7159939  22.1251851  42.9274752
  44.0223411  21.7105804  42.4144706  45.4632930  22.1672388  42.3308171
  46.6296682  22.0570105  40.8040767  46.6067370  22.1557792  39.8522650
  46.9397318  22.9035256  41.1257933  49.2884060  24.1146260  44.9187381
  50.2427313  24.0830202  44.8517313  49.0896583  23.6536884  45.7337607
  49.8783442  22.6847376  47.4858179  50.6976331  23.1791455  47.5093016
  50.1520249  21.7679344  47.4575746  47.6434288  29.6565880  41.9357579
  47.5088756  28.8966281  41.3695577  47.2266351  30.3806779  41.4686368
  50.8003414  30.5535197  42.1476021  50.6835798  31.4980629  42.0454712
  49.9795861  30.2508758  42.5361821  45.1318356  17.0185510  48.1850376
  45.7777220  16.5084464  48.6737601  44.9235507  17.7554192  48.7593801
  53.6521967  11.2825555  33.9374272  53.6400636  12.2267395  34.0942543
  54.5445388  11.0995700  33.6433733  51.8257928  31.2063459  45.3631950
  52.7285175  31.2387069  45.6798445  51.5995299  30.2763909  45.3778286
  53.5811530  29.9594445  42.0242029  52.6307161  29.9596307  41.9106401
  53.8844017  29.2127180  41.5078063  53.5434325  36.3647267  40.8006981
  54.2305364  36.0508997  40.2127996  53.3882453  37.2688631  40.5274232
  53.1202301  34.4447860  43.0724448  53.1586400  33.9111451  43.8661566
  52.6142594  33.9183066  42.4535425  55.6865434  33.8340858  40.9581630
  55.3668218  32.9806166  40.6656004  55.1398862  34.0489436  41.7139597
  52.4297886   7.8130316  24.6180773  52.3521916   8.7638141  24.6969254
  51.8259530   7.4676188  25.2755699  50.0684716  10.5615710  28.7628975
  50.3081314  11.1934234  29.4407994  49.2253912  10.2103750  29.0494334
  50.5429548   6.5863712  26.0927754  49.8739923   7.0709840  25.6091794
  50.4042418   6.8332933  27.0071132  54.6834817   8.6207456  32.6910412
  55.2353125   8.7839077  33.4559497  55.0241010   9.2111894  32.0190437
  47.6434290   6.6628002  28.6602885  47.5088758   5.9028403  28.0940884
  47.2266352   7.3868902  28.1931674  50.8003416   7.5597319  28.8721328
  50.6835800   8.5042752  28.7700018  49.9795862   7.2570881  29.2607127
  51.8257930   8.2125581  32.0877257  52.7285176   8.2449191  32.4043751
  51.5995300   7.2826032  32.1023592  53.5434326  13.3709389  27.5252287
  54.2305366  13.0571119  26.9373303  53.3882455  14.2750754  27.2519539
  53.1202302  11.4509983  29.7969754  53.1586401  10.9173573  30.5906873
  52.6142595  10.9245188  29.1780732  55.6865435  10.8402980  27.6826937
  55.3668219   9.9868288  27.3901311  55.1398863  11.0551558  28.4384904
   3.1063640  22.5738594  46.3251419   2.4325339  22.8770291  46.9336377
   3.4929462  23.3767674  45.9756876   7.0720381  20.1524078  47.5991243
   7.7671286  20.7730770  47.8178557   7.4143531  19.3019429  47.8743621
   1.1635250  20.2585829  46.5066336   0.5909217  20.8776016  46.0536808
   1.7368043  20.8085191  47.0406258   4.3832509  20.5422979  47.6374919
   5.3163182  20.4768541  47.8407794   4.2955722  21.3779246  47.1789451
   7.0120526  19.8588850  44.5978866   6.9334157  19.5248713  45.4914624
   7.8330193  20.3510618  44.5970338   4.5824478  17.1756845  44.2188844
   5.2860328  17.3806848  44.8346500   3.8587127  17.7433607  44.4837928
   6.4911175  17.6139374  46.2687304   7.3256779  17.1820573  46.0864779
   6.3295518  17.4421388  47.1964199  15.1195450  28.1309026  56.3642481
  15.7573860  28.0115773  55.6605821  15.0016293  29.0789869  56.4230433
   7.7871972  29.9371930  52.2900897   7.2236837  29.8461867  51.5217185
   7.6724367  29.1171834  52.7703389  13.3671531  33.6042898  47.6015362
  12.7159511  34.1896978  47.2149376  14.1615894  34.1349093  47.6610399
   7.2927158  30.6932035  48.0002496   8.0658034  30.1461022  47.8615372
   7.6452557  31.5576284  48.2116957   9.6293436  26.8524701  45.6320946
   9.8818957  26.3306222  44.8704409   8.6917995  26.6890846  45.7347630
  14.6736719  25.8560479  53.4395689  15.4599808  25.4379903  53.0886106
  14.9375423  26.7606572  53.6077338  14.8446796  31.2933330  48.1384346
  14.2092629  31.3667956  48.8505251  14.5144202  31.8826929  47.4603425
  20.0745146  25.7935713  54.3428668  20.8070318  25.2234929  54.5766497
  19.3184502  25.4057313  54.7835173   9.3489725  28.7552807  47.8345321
   9.2325983  28.0797710  48.5026405   9.4591985  28.2685181  47.0177474
  11.6921266  28.2162954  51.5392010  11.3279473  27.6893575  52.2504932
  12.5488381  27.8261423  51.3658496  11.3326753  23.2452854  46.5353359
  11.5001155  24.1133090  46.9023830  11.1423922  23.4080135  45.6114648
  11.3115973  25.7010511  47.5200026  11.1915599  26.1467562  48.3585506
  10.6168562  26.0495829  46.9613564   9.0722866  38.4714153  51.1690157
   8.9946895  39.4221978  51.2478637   8.4684509  38.1260026  51.8265083
  17.0101040  26.1731984  48.3480360  17.9218896  26.4059371  48.1728057
  16.5010687  26.7569029  47.7855438  15.6170622  31.1557803  55.7393941
  14.9879484  31.3203517  55.0370009  15.2296284  31.5699412  56.5104905
  19.4959854  32.0912241  53.0938305  18.8110892  32.4711142  52.5435338
  19.5803703  32.7007567  53.8270253  11.1698584  30.8932211  53.0044026
  11.6336929  31.1719914  52.2148649  10.9055382  29.9915656  52.8217117
  10.1067470  27.0155363  49.8133591  10.8091513  27.4676407  50.2807518
   9.7748098  26.3739182  50.4413484  17.8656613  32.6144155  57.8656006
  18.6874057  32.2124342  57.5838687  17.8619016  32.5112389  58.8172121
  25.9562606  28.9582904  54.2140977  25.2026315  28.3890302  54.0584982
  26.0910148  28.9245568  55.1611612  11.3461234  33.8296306  49.8895696
  11.2106909  34.6747842  50.3180544  11.8871047  34.0315584  49.1261630
   4.7990632  31.3471744  50.4623622   5.3115152  32.1414994  50.6129186
   5.4513345  30.6498034  50.3957223   2.7639549  29.6760398  51.2383192
   3.6014771  30.0857407  51.0216900   2.9417816  28.7359840  51.2083386
  14.6603981  27.3435479  46.9267025  14.1450604  28.1140084  47.1655412
  14.3881289  26.6700615  47.5500087  12.2451092  22.1885180  51.9852263
  11.3892688  21.7992030  51.8057902  12.6578044  22.2677141  51.1252049
  19.6338255  30.0967834  48.8620199  18.8567698  29.7578993  48.4175361
  20.3129736  30.1020457  48.1875164  14.4490284  25.2162571  48.7526806
  14.1440419  25.5308720  49.6036949  15.4020726  25.2943991  48.7954139
  12.8936716  31.3752794  50.4019760  12.3658077  30.6405554  50.0892998
  12.3924218  32.1527471  50.1559729  17.8729562  29.5701815  55.5186807
  17.2153236  30.2601076  55.6066935  18.6769961  29.9598247  55.8620793
  16.6835021  27.9246188  53.5690748  17.1966902  28.5576179  54.0712458
  17.3336244  27.3247383  53.2034108   7.9525030  24.0676922  46.7822257
   7.1162343  24.4051608  47.1031532   7.8129800  23.9325901  45.8449394
  11.0389316  29.1933005  43.4054733  10.1316378  28.9622258  43.6045882
  11.5360348  28.3970624  43.5928715  13.9457395  37.9030512  46.3251419
  13.2719094  38.2062209  46.9336377  14.3323217  38.7059592  45.9756876
  13.9450899  26.7987059  50.9451769  14.6922718  27.3108456  50.6358891
  14.2142489  26.4771112  51.8056163  12.2177549  29.2945600  47.9278723
  11.3088769  29.0104632  48.0251193  12.2472633  29.7144678  47.0682030
  17.4496817  32.9052189  51.6969891  16.9959144  32.0643099  51.7535081
  16.8190784  33.5413587  52.0344671  16.3929736  23.8344175  52.9270558
  15.6552493  23.3221561  53.2580801  16.6456510  23.3944557  52.1153835
  15.8929756  34.7428686  52.6319709  16.1852730  35.3033743  51.9132075
  16.4028377  35.0357247  53.3872868  11.9153637  30.8354343  45.2666802
  11.4773067  30.1190202  44.8072439  12.6564078  31.0630458  44.7051893
   8.7054803  25.5251280  51.7878898   7.8922669  25.8245450  52.1944090
   9.2013798  25.1306969  52.5053380  10.8563381  35.5209037  53.7213162
  10.8139560  35.7469883  52.7921694  11.7726080  35.2872411  53.8698963
  20.0326752  29.1111540  51.3243121  19.8944651  29.3013136  50.3964310
  19.6762971  29.8730923  51.7811172  20.0596132  31.1788067  56.3354392
  20.4932638  31.0863356  57.1837446  20.7727712  31.1545568  55.6974408
   8.9729182  32.3972066  53.5175125   9.7669781  31.9022386  53.3157700
   8.2620874  31.8689929  53.1542831   5.2811945  26.5415148  49.5934878
   4.3509534  26.4799603  49.8104840   5.3769417  26.0191100  48.7971519
  20.9211681  31.2211768  58.8687277  21.1147571  32.1257578  59.1146552
  20.8212299  30.7619187  59.7025862  12.1448610  38.0710184  48.5398499
  12.3200366  37.5998227  49.3544121  11.4581398  38.6975950  48.7679759
  13.1005673  32.3482690  54.5861800  12.7655506  32.3083460  55.4819450
  12.6009619  31.6827406  54.1132210  16.0364865  29.6938725  44.8598860
  15.4194035  28.9685553  44.7631912  15.5681353  30.4548085  44.5165934
   7.8263411  23.9124149  43.9820164   6.9492877  23.7912950  43.6182410
   8.3021164  23.1210227  43.7299052  11.0127337  36.2650439  51.2282684
  10.2294859  36.8072120  51.3220909  11.7120082  36.7824419  51.6276925
  22.1753744  27.7785434  55.5135181  22.1643621  28.6610150  55.1429114
  21.3071124  27.4256985  55.3189718  15.4053768  30.8316756  51.4455313
  14.4710046  30.9518219  51.2760017  15.5830436  29.9289223  51.1815323
  18.7926319  26.6734075  51.9805347  19.2586771  27.5062067  51.9065650
  19.2433819  26.2079057  52.6850606  16.8602550  33.0177897  48.9791499
  17.1362394  32.9034491  49.8885373  15.9907049  32.6195382  48.9403672
  13.4956614  37.2664248  52.6224313  13.6779009  36.4485904  53.0852065
  14.3189600  37.4831940  52.1849203  13.8298780  36.1932433  49.8839361
  14.3586546  35.6824887  49.2709523  14.0926999  35.8774963  50.7484894
   2.5542105  25.5066004  49.4233069   2.8495546  24.5976683  49.3700123
   1.6530140  25.4853744  49.1014072  14.4628183  37.2273268  56.2283478
  14.3379323  36.4263008  55.7194423  15.1207274  37.7219462  55.7397448
  16.5263092  35.0282289  57.8563028  15.5793427  34.9087640  57.7841355
  16.8745865  34.1404787  57.9389289  13.5309525  34.8235005  54.0567380
  13.3834487  33.8951712  54.2374950  14.3563019  34.8455095  53.5724455
   7.3971769  23.4753072  49.9147872   7.7367842  24.0038993  49.1926481
   7.8443890  23.8133478  50.6906439  17.1343647  35.6463563  55.1432253
  18.0590194  35.4406425  55.0056704  16.9658950  35.3979965  56.0521594
   9.3839916  21.9727693  48.1141165  10.1048279  22.3508946  47.6104882
   8.7605221  22.6916570  48.2176143  13.5271039  22.6772842  49.0499497
  13.7434654  23.5597480  48.7488326  13.0465106  22.2859056  48.3205139
  16.9238963  36.1649231  50.4994344  17.0975841  35.5995653  49.7468197
  17.4167854  36.9650126  50.3173834  22.7778354  28.9285654  52.1184644
  23.2209500  28.1792979  51.7203767  21.9004865  28.9195790  51.7358376
  17.9114136  35.4815995  47.5991243  18.6065040  36.1022688  47.8178557
  18.2537286  34.6311347  47.8743621  19.8105559  32.9315701  49.1278573
  20.3356883  33.2702974  48.4027893  19.7227911  31.9962716  48.9441708
   8.5033598  33.0929617  49.0354589   8.6521719  33.7765081  48.3821262
   9.3100042  33.0734707  49.5504045  22.3211219  30.3990892  54.5107092
  23.1558110  30.8380696  54.6744652  22.4570348  29.9229545  53.6915337
   6.2586231  29.1194794  50.0415658   6.0132273  28.2157124  50.2395868
   6.4282146  29.1211945  49.0995136   5.5281879  24.8523152  47.5401819
   4.8351124  24.9267507  46.8841855   5.2833631  24.0883495  48.0623336
  12.0029004  35.5877747  46.5066336  11.4302971  36.2067934  46.0536808
  12.5761798  36.1377109  47.0406258  15.2226264  35.8714897  47.6374919
  16.1556937  35.8060459  47.8407794  15.1349477  36.7071164  47.1789451
  17.8514280  35.1880767  44.5978866  17.7727912  34.8540631  45.4914624
  18.6723947  35.6802535  44.5970338  20.5492472  28.0542507  57.8055185
  20.5168792  27.1158508  57.9914869  21.1593095  28.1326544  57.0721010
  12.3875802  26.9238560  43.8482389  13.3334907  26.7944768  43.9170807
  12.0090047  26.1853222  44.3251817  26.3669021  29.1158514  56.9461221
  27.0972410  28.8543802  57.5068925  25.7575967  28.3787236  56.9863289
  24.4484319  27.2566376  57.5435673  23.7217482  27.1222341  56.9352164
  24.0331605  27.5643205  58.3492391  10.5718720  24.8488536  43.7837274
   9.6650175  24.5521649  43.8599988  10.8494701  24.5518354  42.9171560
   9.3417504  21.7075471  43.9249253  10.2036668  22.0330370  44.1845070
   9.5267848  20.9206967  43.4122319  17.4950141  20.5803998  51.0684476
  16.9148810  21.2388802  50.6862529  17.2286073  19.7581342  50.6571894
  16.2775019  22.7404088  50.1240824  15.3900874  23.0253739  49.9061019
  16.6929008  22.5797852  49.2768101  19.6289555  22.7650609  53.8395164
  20.4049945  23.2547062  54.1119780  18.9037689  23.1908663  54.2967033
  22.0662114  23.4778228  54.8969104  22.6606604  23.2373964  54.1862413
  22.1388697  22.7585359  55.5242641  15.4218232  32.5048763  44.2188844
  16.1254082  32.7098765  44.8346500  14.6980881  33.0725525  44.4837928
  16.2516043  28.2558624  50.3391115  16.1951244  28.7127176  49.4998747
  16.8044385  27.4949309  50.1613957  20.0620848  24.0448356  51.1641234
  19.8057783  23.6444992  51.9949442  19.4373716  24.7592150  51.0391373
  24.3733186  26.7844429  53.6712525  23.8132744  26.8537619  54.4444088
  23.7676690  26.6085414  52.9512022  17.3304930  32.9431292  46.2687304
  18.1650534  32.5112491  46.0864779  17.1689273  32.7713306  47.1964199
  16.9850822  29.4463405  47.6343644  16.9299626  29.2807677  46.6932088
  16.3596877  30.1539438  47.7905833  10.2946947  18.9471514  47.2128962
  10.2825617  19.8913354  47.3697233  11.1870369  18.7641660  46.9188423
  18.6265727  45.2663848  52.2900897  18.0630592  45.1753785  51.5217185
  18.5118122  44.4463752  52.7703389  24.2065285  48.9334815  47.6015362
  23.5553265  49.5188896  47.2149376  25.0009648  49.4641010  47.6610399
  18.1320913  46.0223953  48.0002496  18.9051789  45.4752940  47.8615372
  18.4846311  46.8868202  48.2116957  20.4687190  42.1816619  45.6320946
  20.7212711  41.6598140  44.8704409  19.5311749  42.0182764  45.7347630
  25.5130473  41.1852397  53.4395689  26.2993562  40.7671820  53.0886106
  25.7769178  42.0898489  53.6077338  25.6840551  46.6225247  48.1384346
  25.0486384  46.6959874  48.8505251  25.3537957  47.2118846  47.4603425
  20.1883479  44.0844725  47.8345321  20.0719737  43.4089628  48.5026405
  20.2985739  43.5977099  47.0177474  22.5315020  43.5454872  51.5392010
  22.1673227  43.0185493  52.2504932  23.3882136  43.1553341  51.3658496
  22.1720507  38.5744771  46.5353359  22.3394909  39.4425008  46.9023830
  21.9817676  38.7372053  45.6114648  18.3808322  43.4875547  54.2355894
  17.4558818  43.3551761  54.4433585  18.6292735  44.2669766  54.7325836
  22.1509728  41.0302429  47.5200026  22.0309353  41.4759480  48.3585506
  21.4562316  41.3787747  46.9613564  27.8494794  41.5023902  48.3480360
  28.7612650  41.7351289  48.1728057  27.3404441  42.0860946  47.7855438
  25.1930769  37.6781938  56.5970220  24.3315248  37.9763192  56.8886958
  25.2193204  37.8952337  55.6651253  22.0092338  46.2224129  53.0044026
  22.4730684  46.5011832  52.2148649  21.7449136  45.3207573  52.8217117
  20.9461224  42.3447281  49.8133591  21.6485268  42.7968325  50.2807518
  20.6141853  41.7031100  50.4413484  14.6886558  40.6030834  55.1150725
  13.8985612  40.8588362  54.6390835  15.1797806  41.4179172  55.2202765
  16.6401304  40.9675413  52.0734202  15.8432467  41.0794107  52.5917697
  16.4126896  41.3062065  51.2075092  22.1854989  49.1588224  49.8895696
  22.0500664  50.0039759  50.3180544  22.7264801  49.3607501  49.1261630
  15.6384386  46.6763662  50.4623622  16.1508907  47.4706912  50.6129186
  16.2907099  45.9789952  50.3957223  25.5347453  32.6818786  58.4194590
  25.1911722  33.5720427  58.3433701  25.9026415  32.4920443  57.5564175
  13.6033303  45.0052316  51.2383192  14.4408525  45.4149324  51.0216900
  13.7811571  44.0651758  51.2083386  25.4997735  42.6727397  46.9267025
  24.9844359  43.4432001  47.1655412  25.2275044  41.9992533  47.5500087
  23.0844846  37.5177097  51.9852263  22.2286443  37.1283948  51.8057902
  23.4971798  37.5969058  51.1252049  24.6143993  35.0523441  56.3843823
  24.1108788  35.0153576  55.5711629  24.9074600  35.9616183  56.4440480
  20.8586879  35.1362170  55.3910005  21.7239876  34.9404979  55.0315894
  20.9264388  34.9072522  56.3179362  30.4732009  45.4259751  48.8620199
  29.6961452  45.0870911  48.4175361  31.1523490  45.4312374  48.1875164
  25.2884038  40.5454489  48.7526806  24.9834174  40.8600638  49.6036949
  26.2414481  40.6235909  48.7954139  23.7330470  46.7044712  50.4019760
  23.2051832  45.9697472  50.0892998  23.2317973  47.4819388  50.1559729
  18.4649198  37.3664378  52.7626372  19.0392950  37.1439560  52.0299565
  19.0520180  37.4353073  53.5154973  18.7918785  39.3968839  46.7822257
  17.9556097  39.7343526  47.1031532  18.6523555  39.2617819  45.8449394
  20.7671866  34.2405627  51.4901441  20.1136278  33.9254644  50.8658056
  20.7252340  33.6181368  52.2161264  21.8783070  44.5224922  43.4054733
  20.9710132  44.2914176  43.6045882  22.3754102  43.7262542  43.5928715
  24.7851149  53.2322430  46.3251419  24.1112848  53.5354126  46.9336377
  25.1716971  54.0351510  45.9756876  24.0009606  40.7287561  55.8149089
  23.0832167  40.9502508  55.6570777  24.4169750  40.8033871  54.9560796
  24.7844654  42.1278976  50.9451769  25.5316473  42.6400374  50.6358891
  25.0536243  41.8063029  51.8056163  23.0571304  44.6237517  47.9278723
  22.1482523  44.3396550  48.0251193  23.0866388  45.0436596  47.0682030
  27.2323491  39.1636093  52.9270558  26.4946248  38.6513479  53.2580801
  27.4850264  38.7236474  52.1153835  27.3335118  31.9412345  53.5212328
  27.6393995  31.0809708  53.2338243  28.0587723  32.5329965  53.3211322
  13.6259474  42.3443031  51.9093926  13.4283874  41.7512392  51.1844992
  13.0706138  42.0395241  52.6269864  21.6056198  42.2366138  54.0288519
  21.6604808  41.2839974  53.9530995  20.7947400  42.3925577  54.5129817
  22.7547392  46.1646261  45.2666802  22.3166822  45.4482120  44.8072439
  23.4957833  46.3922376  44.7051893  19.5448558  40.8543198  51.7878898
  18.7316423  41.1537368  52.1944090  20.0407552  40.4598886  52.5053380
  30.8720506  44.4403458  51.3243121  30.7338405  44.6305054  50.3964310
  30.5156725  45.2022841  51.7811172  19.0362633  38.4261553  57.4040133
  19.6762012  38.2850312  56.7063096  18.2040163  38.1396066  57.0278735
  19.8122936  47.7263983  53.5175125  20.6063535  47.2314304  53.3157700
  19.1014629  47.1981847  53.1542831  16.1205700  41.8707065  49.5934878
  15.1903288  41.8091521  49.8104840  16.2163172  41.3483018  48.7971519
  16.0391249  38.3961878  52.1813119  16.2998066  39.3107211  52.0722280
  16.8608421  37.9286321  52.3309732  26.8758619  45.0230642  44.8598860
  26.2587790  44.2977471  44.7631912  26.4075108  45.7840003  44.5165934
  18.6657165  39.2416067  43.9820164  17.7886632  39.1204868  43.6182410
  19.1414918  38.4502145  43.7299052  25.1617741  37.4036987  53.8716890
  25.6586441  36.6506949  53.5517960  24.3904723  37.4401303  53.3060099
  26.2447522  46.1608674  51.4455313  25.3103801  46.2810136  51.2760017
  26.4224191  45.2581141  51.1815323  21.7452710  39.5454370  53.5988574
  21.3750498  38.9925410  54.2869480  22.2411803  38.9412503  53.0463574
  29.6320073  42.0025993  51.9805347  30.0980526  42.8353985  51.9065650
  30.0827574  41.5370975  52.6850606  27.6996305  48.3469814  48.9791499
  27.9756148  48.2326409  49.8885373  26.8300803  47.9487299  48.9403672
  27.6036736  34.3706580  56.0196249  26.6899816  34.6010807  56.1878456
  28.0329838  34.4545024  56.8710281  13.3935859  40.8357922  49.4233069
  13.6889300  39.9268600  49.3700123  12.4923895  40.8145661  49.1014072
  16.9230106  38.9113919  55.4060618  16.2016692  39.5249886  55.2668091
  17.7123362  39.4471683  55.3277264  15.1223701  38.5172020  49.5472395
  14.7936407  37.6369399  49.3647501  15.4763071  38.4619688  50.4348784
  18.2365524  38.8044989  49.9147872  18.5761596  39.3330911  49.1926481
  18.6837644  39.1425396  50.6906439  20.9308965  37.1882040  59.3650940
  20.5905785  36.3889853  59.7671620  20.2247971  37.4883751  58.7927774
  21.5825436  34.2731353  57.8178263  22.4051506  33.7991831  57.6957154
  21.8263500  35.0521836  58.3176950  20.2233671  37.3019611  48.1141165
  20.9442033  37.6800864  47.6104882  19.5998975  38.0208488  48.2176143
  24.3664794  38.0064760  49.0499497  24.5828408  38.8889398  48.7488326
  23.8858861  37.6150973  48.3205139  19.1064015  40.9650473  55.6270242
  18.9608596  41.2790776  56.5194523  18.6289219  41.5835374  55.0741141
  20.9660398  37.9553021  55.6751132  20.9521967  37.0594115  55.3383429
  21.6832826  37.9623685  56.3089418  22.8186529  38.3890361  57.7204259
  22.5604307  39.3107432  57.7188589  22.2871569  37.9920796  58.4104723
  20.3697294  36.8367402  50.9438702  20.4913205  35.9084048  51.1429589
  20.0799336  36.8506088  50.0317017  23.2388484  34.5222312  54.0805422
  23.2610181  34.5861645  53.1257401  23.6556543  33.6826821  54.2745928
  28.7507890  50.8107913  47.5991243  29.4458795  51.4314606  47.8178557
  29.0931040  49.9603264  47.8743621  30.6499313  48.2607619  49.1278573
  31.1750637  48.5994891  48.4027893  30.5621666  47.3254634  48.9441708
  19.3427353  48.4221534  49.0354589  19.4915473  49.1056999  48.3821262
  20.1493796  48.4026624  49.5504045  17.0979986  44.4486712  50.0415658
  16.8526028  43.5449042  50.2395868  17.2675900  44.4503862  49.0995136
  16.3675633  40.1815069  47.5401819  15.6744878  40.2559424  46.8841855
  16.1227385  39.4175413  48.0623336  25.0389290  31.7410671  54.9441310
  25.3191044  31.0733860  55.5701736  25.8239897  31.9339766  54.4315974
  22.8422758  50.9169665  46.5066336  22.2696726  51.5359852  46.0536808
  23.4155552  51.4669026  47.0406258  26.0620018  51.2006815  47.6374919
  26.9950691  51.1352376  47.8407794  25.9743231  52.0363082  47.1789451
  28.6908035  50.5172685  44.5978866  28.6121666  50.1832549  45.4914624
  29.5117702  51.0094453  44.5970338  23.2269557  42.2530477  43.8482389
  24.1728662  42.1236686  43.9170807  22.8483802  41.5145139  44.3251817
  29.1991442  33.9186483  53.8109281  29.0016263  33.6101572  54.6952613
  29.8091147  34.6448122  53.9407210  21.4112474  40.1780454  43.7837274
  20.5043930  39.8813567  43.8599988  21.6888455  39.8810272  42.9171560
  23.0274540  34.7217344  49.9381515  22.2175268  34.3764429  50.3136761
  23.7158957  34.4124887  50.5269127  24.9565088  33.7995390  51.5605812
  25.5096127  34.2190844  52.2195835  25.1935175  32.8731138  51.6028768
  20.1811259  37.0367389  43.9249253  21.0430423  37.3622287  44.1845070
  20.3661603  36.2498885  43.4122319  28.3343895  35.9095916  51.0684476
  27.7542564  36.5680720  50.6862529  28.0679828  35.0873260  50.6571894
  26.7847462  35.3100973  53.2705796  27.2847240  35.4217508  52.4620115
  27.4283070  35.0062026  53.9106605  27.1168773  38.0696006  50.1240824
  26.2294628  38.3545657  49.9061019  27.5322762  37.9089769  49.2768101
  30.4683309  38.0942527  53.8395164  31.2443700  38.5838979  54.1119780
  29.7431444  38.5200581  54.2967033  26.2611987  47.8340681  44.2188844
  26.9647837  48.0390683  44.8346500  25.5374635  48.4017442  44.4837928
  27.0909797  43.5850542  50.3391115  27.0344998  44.0419093  49.4998747
  27.6438139  42.8241226  50.1613957  30.9014603  39.3740274  51.1641234
  30.6451537  38.9736909  51.9949442  30.2767471  40.0884068  51.0391373
  28.1698684  48.2723210  46.2687304  29.0044288  47.8404408  46.0864779
  28.0083027  48.1005223  47.1964199  27.8244576  44.7755323  47.6343644
  27.7693380  44.6099595  46.6932088  27.1990632  45.4831356  47.7905833
  21.1340702  34.2763432  47.2128962  21.1219372  35.2205272  47.3697233
  22.0264124  34.0933577  46.9188423  24.9492821  30.8706209  51.4674899
  24.1825217  30.3164695  51.6131581  25.3603526  30.9428077  52.3289051
  29.5050920  54.5707984  43.9820164  28.6280386  54.4496785  43.6182410
  29.9808673  53.7794063  43.7299052  32.2506229  55.5072372  43.7837274
  31.3437684  55.2105484  43.8599988  32.5282210  55.2102190  42.9171560
  31.0205013  52.3659307  43.9249253  31.8824177  52.6914205  44.1845070
  31.2055357  51.5790803  43.4122319  31.9734456  49.6055350  47.2128962
  31.9613126  50.5497190  47.3697233  32.8657878  49.4225495  46.9188423
  15.1195451   5.1371148  43.0887788  15.7573861   5.0177895  42.3851128
  15.0016294   6.0851992  43.1475740   7.7871973   6.9434053  39.0146203
   7.2236839   6.8523990  38.2462491   7.6724369   6.1233957  39.4948696
  13.3671532  10.6105020  34.3260668  12.7159512  11.1959101  33.9394682
  14.1615895  11.1411215  34.3855706   7.2927159   7.6994157  34.7247803
   8.0658035   7.1523145  34.5860679   7.6452558   8.5638407  34.9362264
   9.6293437   3.8586824  32.3566253   9.8818958   3.3368345  31.5949716
   8.6917996   3.6952969  32.4592936  14.6736720   2.8622602  40.1640996
  15.4599809   2.4442025  39.8131413  14.9375424   3.7668694  40.3322644
  14.8446797   8.2995452  34.8629653  14.2092630   8.3730079  35.5750557
  14.5144204   8.8889051  34.1848732  20.0745147   2.7997835  41.0673974
  20.8070319   2.2297052  41.3011804  19.3184503   2.4119436  41.5080480
   9.3489726   5.7614930  34.5590628   9.2325984   5.0859833  35.2271712
   9.4591986   5.2747303  33.7422781  11.6921267   5.2225077  38.2637317
  11.3279474   4.6955698  38.9750238  12.5488383   4.8323546  38.0903802
  11.3115975   2.7072634  34.2445332  11.1915600   3.1529685  35.0830812
  10.6168563   3.0557952  33.6858870   9.0722867  15.4776276  37.8935463
   8.9946896  16.4284101  37.9723944   8.4684510  15.1322148  38.5510390
  17.0101041   3.1794107  35.0725666  17.9218897   3.4121494  34.8973364
  16.5010688   3.7631151  34.5100745  15.6170623   8.1619925  42.4639248
  14.9879486   8.3265640  41.7615316  15.2296285   8.5761535  43.2350212
  19.4959855   9.0974363  39.8183611  18.8110893   9.4773265  39.2680645
  19.5803704   9.7069690  40.5515559  11.1698585   7.8994334  39.7289333
  11.6336931   8.1782037  38.9393955  10.9055383   6.9977778  39.5462423
  10.1067471   4.0217486  36.5378898  10.8091514   4.4738530  37.0052824
   9.7748100   3.3801305  37.1658791  17.8656615   9.6206278  44.5901312
  18.6874058   9.2186465  44.3083994  17.8619017   9.5174512  45.5417428
  25.9562608   5.9645026  40.9386284  25.2026316   5.3952424  40.7830288
  26.0910149   5.9307691  41.8856918  11.3461236  10.8358429  36.6141003
  11.2106910  11.6809964  37.0425851  11.8871048  11.0377706  35.8506937
   4.7990633   8.3533867  37.1868928   5.3115154   9.1477117  37.3374493
   5.4513346   7.6560157  37.1202530   6.6085518  11.4699623  39.2691681
   6.7852146  12.3917588  39.0812665   7.4042351  11.1558042  39.6986061
  14.6603982   4.3497602  33.6512332  14.1450605   5.1202206  33.8900719
  14.3881290   3.6762738  34.2745393  19.6338256   7.1029956  35.5865505
  18.8567699   6.7641116  35.1420667  20.3129737   7.1082579  34.9120470
  14.4490285   2.2224694  35.4772113  14.1440421   2.5370843  36.3282256
  15.4020727   2.3006114  35.5199446  12.8936717   8.3814917  37.1265067
  12.3658079   7.6467677  36.8138304  12.3924220   9.1589593  36.8805035
  17.8729563   6.5763937  42.2432113  17.2153237   7.2663199  42.3312242
  18.6769962   6.9660369  42.5866100  16.6835022   4.9308310  40.2936055
  17.1966904   5.5638302  40.7957765  17.3336246   4.3309506  39.9279415
  11.0389317   6.1995127  30.1300040  10.1316379   5.9684381  30.3291189
  11.5360349   5.4032746  30.3174021  13.9457396  14.9092634  33.0496726
  13.2719095  15.2124331  33.6581684  14.3323218  15.7121715  32.7002183
  13.9450900   3.8049181  37.6697076  14.6922719   4.3170579  37.3604198
  14.2142490   3.4833234  38.5301469  12.2177551   6.3007722  34.6524030
  11.3088770   6.0166755  34.7496500  12.2472634   6.7206801  33.7927337
  17.4496818   9.9114312  38.4215198  16.9959145   9.0705221  38.4780388
  16.8190785  10.5475710  38.7589978  16.3929738   0.8406298  39.6515865
  15.6552494   0.3283684  39.9826108  16.6456511   0.4006679  38.8399142
  15.8929757  11.7490808  39.3565016  16.1852732  12.3095865  38.6377381
  16.4028378  12.0419369  40.1118175  11.9153638   7.8416466  31.9912109
  11.4773068   7.1252325  31.5317746  12.6564079   8.0692581  31.4297200
  10.8563382  12.5271159  40.4458469  10.8139561  12.7532006  39.5167001
  11.7726081  12.2934534  40.5944270  20.0326753   6.1173663  38.0488427
  19.8944652   6.3075259  37.1209616  19.6762972   6.8793046  38.5056478
  20.0596133   8.1850190  43.0599699  20.4932639   8.0925479  43.9082753
  20.7727714   8.1607690  42.4219715   8.9729183   9.4034188  40.2420432
   9.7669782   8.9084509  40.0403007   8.2620876   8.8752052  39.8788137
  13.7924028  11.7852284  44.5932799  13.8461050  12.3543220  45.3610515
  12.9238809  11.9554169  44.2286836  20.9211682   8.2273890  45.5932584
  21.1147572   9.1319701  45.8391859  20.8212301   7.7681310  46.4271169
  11.5500459   9.9763210  43.9218269  11.4111545   9.6081995  44.7944207
  10.7615055  10.4910850  43.7502227  12.1448611  15.0772307  35.2643805
  12.3200367  14.6060350  36.0789428  11.4581399  15.7038073  35.4925066
  13.1005674   9.3544813  41.3107107  12.7655507   9.3145583  42.2064756
  12.6009620   8.6889529  40.8377517  16.0364866   6.7000847  31.5844166
  15.4194037   5.9747676  31.4877219  15.5681355   7.4610208  31.2411240
   6.7109697  18.2261670  42.0383665   6.9506295  18.8580194  42.7162684
   5.8678893  17.8749710  42.3249025  11.2237558  14.0340792  44.4425169
  11.1507730  14.8395764  44.9544474  10.7814951  14.2332758  43.6173191
  11.0127338  13.2712562  37.9527991  10.2294860  13.8134242  38.0466215
  11.7120083  13.7886542  38.3522232  22.1753746   4.7847557  42.2380488
  22.1643622   5.6672273  41.8674421  21.3071125   4.4319108  42.0435025
  13.6836242  13.9327626  46.5983328  14.3964214  14.5675091  46.5259230
  13.1926271  14.0291492  45.7823330  15.4053769   7.8378879  38.1700620
  14.4710048   7.9580341  38.0005324  15.5830437   6.9351346  37.9060630
  18.7926320   3.6796198  38.7050654  19.2586772   4.5124190  38.6310957
  19.2433821   3.2141180  39.4095912  16.8602551  10.0240019  35.7036806
  17.1362395   9.9096614  36.6130680  15.9907050   9.6257504  35.6648979
  13.4956615  14.2726370  39.3469620  13.6779010  13.4548026  39.8097372
  14.3189601  14.4894062  38.9094510  13.8298781  13.1994555  36.6084668
  14.3586547  12.6887010  35.9954830  14.0927000  12.8837086  37.4730201
   7.1854529  14.2509672  39.3682444   6.5164904  14.7355800  38.8846484
   7.0467398  14.4978892  40.2825822  11.3259797  16.2853416  45.9665102
  11.8778105  16.4485037  46.7314188  11.6665991  16.8757853  45.2945127
  14.4628185  14.2335391  42.9528785  14.3379324  13.4325131  42.4439730
  15.1207276  14.7281584  42.4642754  16.5263093  12.0344411  44.5808335
  15.5793428  11.9149762  44.5086661  16.8745866  11.1466909  44.6634596
  13.5309526  11.8297127  40.7812687  13.3834489  10.9013835  40.9620257
  14.3563020  11.8517218  40.2969762  17.1343648  12.6525686  41.8677560
  18.0590196  12.4468547  41.7302011  16.9658951  12.4042087  42.7766901
  16.9238964  13.1711354  37.2239651  17.0975842  12.6057776  36.4713503
  17.4167856  13.9712248  37.0419141  22.7778355   5.9347776  38.8429951
  23.2209502   5.1855102  38.4449074  21.9004866   5.9257913  38.4603683
  17.9114137  12.4878118  34.3236549  18.6065041  13.1084811  34.5423864
  18.2537287  11.6373469  34.5988927  19.8105560   9.9377823  35.8523880
  20.3356884  10.2765096  35.1273200  19.7227912   9.0024839  35.6687015
  11.4946221  16.0049807  40.2119133  11.0551211  15.5126185  40.9051990
  12.2454338  15.4622774  39.9711208   3.9738560  12.1961348  40.2143761
   4.7996580  11.8965119  39.8342405   3.6232612  11.4268970  40.6633550
   8.9420093  11.5487816  42.2841435   8.3200102  10.8858521  41.9843663
   9.6124960  11.5748948  41.6015083   8.5033600  10.0991739  35.7599895
   8.6521720  10.7827204  35.1066568   9.3100043  10.0796829  36.2749351
  22.3211220   7.4053015  41.2352398  23.1558112   7.8442819  41.3989959
  22.4570349   6.9291668  40.4160644   6.2586233   6.1256917  36.7660964
   6.0132275   5.2219247  36.9641175   6.4282147   6.1274067  35.8240442
  12.0029005  12.5939870  33.2311643  11.4302972  13.2130057  32.7782115
  12.5761799  13.1439231  33.7651565  15.2226265  12.8777020  34.3620225
  16.1556938  12.8122581  34.5653101  15.1349478  13.7133287  33.9034758
  17.8514282  12.1942890  31.3224173  17.7727913  11.8602754  32.2159931
  18.6723949  12.6864658  31.3215645  20.5492473   5.0604629  44.5300491
  20.5168793   4.1220630  44.7160175  21.1593097   5.1388666  43.7966316
  12.3875804   3.9300682  30.5727695  13.3334908   3.8006890  30.6416113
  12.0090049   3.1915344  31.0497124  26.3669023   6.1220636  43.6706528
  27.0972411   5.8605924  44.2314231  25.7575968   5.3849358  43.7108596
  24.4484320   4.2628499  44.2680979  23.7217483   4.1284464  43.6597471
  24.0331607   4.5705327  45.0737697  16.2775020  -0.2533789  36.8486131
  15.3900875   0.0315861  36.6306326  16.6929009  -0.4140026  36.0013408
  19.6289556  -0.2287268  40.5640470  20.4049946   0.2609184  40.8365087
  18.9037690   0.1970786  41.0212340  22.0662115   0.4840351  41.6214411
  22.6606606   0.2436087  40.9107719  22.1388698  -0.2352518  42.2487947
   4.2859270  14.3273962  41.9357576   4.1513738  13.5674363  41.3695574
   3.8691333  15.0514862  41.4686365  15.4218233   9.5110885  30.9434151
  16.1254084   9.7160888  31.5591807  14.6980882  10.0787647  31.2083235
  16.2516044   5.2620747  37.0636421  16.1951245   5.7189298  36.2244054
  16.8044386   4.5011431  36.8859264  20.0620850   1.0510479  37.8886541
  19.8057784   0.6507114  38.7194748  19.4373718   1.7654273  37.7636680
  24.3733188   3.7906552  40.3957832  23.8132746   3.8599741  41.1689394
  23.7676691   3.6147536  39.6757328   7.4428396  15.2243279  42.1476018
   7.3260781  16.1688711  42.0454709   6.6220843  14.9216841  42.5361818
  17.3304931   9.9493415  32.9932611  18.1650535   9.5174613  32.8110086
  17.1689274   9.7775428  33.9209506  16.9850823   6.4525528  34.3588950
  16.9299627   6.2869799  33.4177395  16.3596878   7.1601561  34.5151140
   8.4682910  15.8771541  45.3631947   9.3710157  15.9095151  45.6798442
   8.2420281  14.9471992  45.3778283  10.2236513  14.6302527  42.0242025
   9.2732144  14.6304389  41.9106398  10.5268999  13.8835262  41.5078060
  25.9589206  20.4663066  43.0887788  26.5967616  20.3469813  42.3851128
  25.8410049  21.4143910  43.1475740  22.7678912  20.4190494  43.0249313
  22.4297424  20.3031559  42.1369847  23.6368680  20.0181659  43.0050319
  18.6265728  22.2725970  39.0146203  18.0630593  22.1815907  38.2462491
  18.5118123  21.4525875  39.4948696  23.2498695  21.5725346  48.9835518
  23.2387336  21.1778144  48.1116022  23.4119335  20.8391418  49.5769290
  16.1730160  23.7677162  41.8530424  16.9651452  23.4267987  41.4376723
  16.4126810  23.8772137  42.7732577  18.1320914  23.0286075  34.7247803
  18.9051790  22.4815062  34.5860679  18.4846313  23.8930324  34.9362264
  19.9705956  24.3562457  47.9314702  19.6795822  25.2608088  47.8161368
  20.6062941  24.3978985  48.6458772  20.8962163  21.7339306  44.5216062
  21.4925736  21.5095328  43.8073025  20.9537135  20.9924051  45.1241510
  20.4687192  19.1878741  32.3566253  20.7212712  18.6660263  31.5949716
  19.5311751  19.0244887  32.4592936  25.5130474  18.1914520  40.1640996
  26.2993564  17.7733943  39.8131413  25.7769179  19.0960612  40.3322644
  30.9138902  18.1289753  41.0673974  31.6464074  17.5588970  41.3011804
  30.1578257  17.7411353  41.5080480  20.1883480  21.0906847  34.5590628
  20.0719738  20.4151751  35.2271712  20.2985740  20.6039221  33.7422781
  22.5315021  20.5516994  38.2637317  22.1673229  20.0247615  38.9750238
  23.3882137  20.1615463  38.0903802  28.4364322  11.8411327  45.5268583
  28.1047647  12.7106738  45.3029798  27.8409935  11.5247611  46.2062613
  22.1720508  15.5806894  33.2598665  22.3394911  16.4487130  33.6269136
  21.9817677  15.7434176  32.3359955  24.9295841  24.0423873  44.9264496
  24.6296565  24.9448912  44.8180303  24.5846901  23.7756056  45.7785649
  18.3808323  20.4937670  40.9601200  17.4558819  20.3613884  41.1678892
  18.6292736  21.2731889  41.4571143  28.3292985  16.5606413  42.6061933
  27.4209863  16.4921822  42.3120694  28.2780581  17.0378358  43.4343759
  22.1509729  18.0364552  34.2445332  22.0309354  18.4821602  35.0830812
  21.4562318  18.3849869  33.6858870  15.7417134  20.1370943  41.7944989
  15.8709515  20.3905422  42.7084401  15.0614585  20.7298651  41.4749644
  19.9116621  30.8068193  37.8935463  19.8340651  31.7576018  37.9723944
  19.3078265  30.4614066  38.5510390  22.4033851  17.9796059  50.5496830
  21.6267185  18.5389979  50.5399695  23.0424414  18.4652842  51.0711700
  30.1954632  14.7622852  44.3839807  29.5529012  15.0555385  43.7379602
  29.6909560  14.6475772  45.1893004  20.6580223  20.7881512  50.1114797
  21.3994908  21.3266556  49.8349621  19.9517209  21.4147801  50.2686349
  26.1335563  22.9310653  48.7086959  26.5418919  22.4893063  47.9641591
  25.4112825  22.3563280  48.9621152  22.4866633  17.8683259  46.0820516
  23.3327828  18.2922673  46.2255165  22.4265271  17.2116884  46.7759079
  26.4564378  23.4911843  42.4639248  25.8273240  23.6557557  41.7615316
  26.0690040  23.9053453  43.2350212  30.3353610  24.4266281  39.8183611
  29.6504648  24.8065182  39.2680645  30.4197459  25.0361608  40.5515559
  25.6366078  15.5287628  47.7401689  25.3927010  16.2829688  47.2035965
  25.9126009  15.9072975  48.5748936  27.5904541  22.0726240  46.4178955
  27.8021436  22.7158000  45.7413336  27.5434289  21.2388557  45.9500885
  25.1930770  14.6844061  43.3215527  24.3315249  14.9825314  43.6132265
  25.2193205  14.9014460  42.3896560  22.0092340  23.2286251  39.7289333
  22.4730685  23.5073954  38.9393955  21.7449138  22.3269696  39.5462423
  18.9016421  22.7757733  42.6669096  19.4717778  23.2045001  42.0286581
  19.4924532  22.4940317  43.3653282  20.9461226  19.3509404  36.5378898
  21.6485269  19.8030447  37.0052824  20.6141854  18.7093222  37.1658791
  19.3941587  17.9421160  50.9130107  18.7640248  18.6237441  51.1465504
  19.2877675  17.8304242  49.9683246  14.6886560  17.6092956  41.8396031
  13.8985614  17.8650485  41.3636142  15.1797807  18.4241294  41.9448072
  28.7050369  24.9498195  44.5901312  29.5267813  24.5478383  44.3083994
  28.7012772  24.8466430  45.5417428  16.6401305  17.9737536  38.7979508
  15.8432468  18.0856230  39.3163004  16.4126897  18.3124188  37.9320399
  22.4706973  24.4982239  46.7462023  22.5351405  24.9602646  47.5820195
  21.7617896  23.8679604  46.8744333  12.9724263  17.8623447  44.2711022
  13.2232301  18.7470457  44.5368598  13.5083811  17.6828048  43.4986114
  36.7956362  21.2936944  40.9386284  36.0420071  20.7244342  40.7830288
  36.9303903  21.2599608  41.8856918  22.1854990  26.1650346  36.6141003
  22.0500665  27.0101882  37.0425851  22.7264803  26.3669624  35.8506937
  15.6384388  23.6825784  37.1868928  16.1508908  24.4769035  37.3374493
  16.2907100  22.9852075  37.1202530  17.4479272  26.7991541  39.2691681
  17.6245901  27.7209505  39.0812665  18.2436106  26.4849960  39.6986061
  21.5890291  13.6599805  50.8675615  22.3300004  14.2606958  50.7880077
  21.8208214  12.9177443  50.3093658  16.7331629  18.8456172  49.1453845
  16.6185144  17.9441430  49.4460944  15.8776147  19.0919869  48.7938661
  23.8123467  26.7873913  50.7441345  23.3687321  26.0010291  50.4262250
  24.4740680  26.9753063  50.0785236  18.5710588  28.3169714  45.2702024
  19.1218013  28.1886778  44.4979018  17.7322064  28.6164603  44.9196917
  25.9104705  27.0676713  48.7722747  25.8923180  27.8885594  48.2803016
  26.8324625  26.9430788  48.9972888  22.3677759  24.5820842  49.6146255
  22.9006096  23.8209130  49.3845563  21.8391840  24.2894494  50.3570409
  25.5347454   9.6880908  45.1439897  25.1911723  10.5782550  45.0679007
  25.9026416   9.4982566  44.2809482  13.6033304  22.0114439  37.9628499
  14.4408526  22.4211447  37.7462206  13.7811572  21.0713881  37.9328693
  23.0844848  14.5239220  38.7097570  22.2286444  14.1346070  38.5303209
  23.4971799  14.6031181  37.8497356  24.6143994  12.0585563  43.1089130
  24.1108790  12.0215698  42.2956935  24.9074601  12.9678306  43.1685787
  20.8586880  12.1424293  42.1155312  21.7239877  11.9467102  41.7561201
  20.9264389  11.9134645  43.0424668  23.7330472  23.7106835  37.1265067
  23.2051833  22.9759594  36.8138304  23.2317974  24.4881511  36.8805035
  28.7123318  21.9055855  42.2432113  28.0546992  22.5955117  42.3312242
  29.5163717  22.2952287  42.5866100  18.4649199  14.3726501  39.4871678
  19.0392951  14.1501682  38.7544871  19.0520182  14.4415195  40.2400280
  18.7918786  16.4030962  33.5067564  17.9556098  16.7405648  33.8276838
  18.6523556  16.2679942  32.5694701  20.7671867  11.2467750  38.2146748
  20.1136279  10.9316767  37.5903363  20.7252341  10.6243490  38.9406571
  24.0009607  17.7349683  42.5394395  23.0832169  17.9564630  42.3816084
  24.4169751  17.8095994  41.6806103  28.2890573  25.2406229  38.4215198
  27.8352900  24.3997139  38.4780388  27.6584539  25.8767628  38.7589978
  27.2323492  16.1698215  39.6515865  26.4946249  15.6575602  39.9826108
  27.4850266  15.7298597  38.8399142  26.7323512  27.0782726  39.3565016
  27.0246486  27.6387783  38.6377381  27.2422132  27.3711287  40.1118175
  27.3335119   8.9474467  40.2457634  27.6393996   8.0871831  39.9583549
  28.0587724   9.5392088  40.0456628  13.6259476  19.3505154  38.6339232
  13.4283875  18.7574515  37.9090299  13.0706140  19.0457364  39.3515171
  21.6056199  19.2428260  40.7533825  21.6604809  18.2902097  40.6776302
  20.7947401  19.3987699  41.2375124  19.5448559  17.8605320  38.5124204
  18.7316425  18.1599491  38.9189396  20.0407553  17.4661009  39.2298686
  21.6957137  27.8563077  40.4458469  21.6533316  28.0823923  39.5167001
  22.6119836  27.6226452  40.5944270  25.1422771  18.3247145  47.3439098
  25.4972158  18.5518618  48.2033564  25.7894902  18.6565521  46.7216353
  19.0362634  15.4323676  44.1285439  19.6762013  15.2912435  43.4308403
  18.2040164  15.1458189  43.7524041  30.8989887  23.5142107  43.0599699
  31.3326394  23.4217397  43.9082753  31.6121468  23.4899608  42.4219715
  19.8122938  24.7326106  40.2420432  20.6063536  24.2376426  40.0403007
  19.1014630  24.2043969  39.8788137  24.6317782  27.1144202  44.5932799
  24.6854805  27.6835138  45.3610515  23.7632564  27.2846087  44.2286836
  16.1205701  18.8769188  36.3180184  15.1903289  18.8153643  36.5350146
  16.2163173  18.3545141  35.5216826  16.0391250  15.4024001  38.9058426
  16.2998068  16.3169334  38.7967586  16.8608423  14.9348443  39.0555039
  17.5116176  16.8161758  46.0757251  18.1839229  16.6079120  45.4269899
  16.6845962  16.6183844  45.6362483  31.7605437  23.5565808  45.5932584
  31.9541327  24.4611619  45.8391859  31.6606055  23.0973227  46.4271169
  23.4141748  13.4423699  48.0922911  22.7669663  14.1413648  47.9987388
  24.1842763  13.8759843  48.4599160  26.8220546  23.7072551  51.1673465
  26.6706052  23.4783103  50.2503548  26.8125225  24.6643152  51.1804810
  23.5905882  21.2804464  46.1519731  24.5197942  21.4315623  45.9788698
  23.1696912  21.3688484  45.2968378  22.3894214  25.3055128  43.9218269
  22.2505299  24.9373912  44.7944207  21.6008810  25.8202767  43.7502227
  22.9842366  30.4064225  35.2643805  23.1594121  29.9352268  36.0789428
  22.2975154  31.0329991  35.4925066  23.9399429  24.6836731  41.3107107
  23.6049262  24.6437501  42.2064756  23.4403375  24.0181447  40.8377517
  17.9143673  20.0904361  46.8359688  17.7763471  19.3584600  47.4371227
  18.8248596  20.0013261  46.5543875  20.5425974  19.8024320  46.3243367
  21.2525592  19.1617512  46.2829986  20.4995282  20.0537215  47.2469548
  28.5312752  26.7391673  49.2449947  28.4725298  26.0550894  48.5780530
  28.9332271  27.4810663  48.7930573  19.2554908  16.7889538  48.1439007
  18.7192265  16.3380276  48.7960603  18.6671616  16.9235447  47.4009471
  17.5503451  33.5553587  42.0383665  17.7900049  34.1872111  42.7162684
  16.7072647  33.2041627  42.3249025  18.6657166  16.2478189  30.7065470
  17.7886633  16.1266990  30.3427717  19.1414920  15.4564268  30.4544359
  28.5330159  24.7031257  47.4763926  27.6456938  24.3657179  47.5990325
  29.1028711  23.9714289  47.7132692  10.1859307  21.0355349  40.8006978
  10.8730346  20.7217079  40.2127993  10.0307435  21.9396714  40.5274229
  14.9894029  15.9245546  45.2292001  14.9052217  15.3171215  44.4942411
  14.1676735  16.4154564  45.2301498  22.0631313  29.3632710  44.4425169
  21.9901484  30.1687681  44.9544474  21.6208706  29.5624676  43.6173191
  21.8521092  28.6004480  37.9527991  21.0688614  29.1426160  38.0466215
  22.5513838  29.1178459  38.3522232  25.1617743  14.4099109  40.5962196
  25.6586442  13.6569072  40.2763267  24.3904724  14.4463426  40.0305406
  33.0147500  20.1139475  42.2380488  33.0037376  20.9964190  41.8674421
  32.1464879  19.7611026  42.0435025  24.5229996  29.2619544  46.5983328
  25.2357969  29.8967009  46.5259230  24.0320025  29.3583410  45.7823330
  21.7452711  16.5516492  40.3233881  21.3750499  15.9987533  41.0114787
  22.2411804  15.9474626  39.7708881  19.5741910  27.0113987  47.4188899
  20.2751369  27.6450470  47.5718293  19.1037025  27.3528719  46.6584538
  27.6036737  11.3768703  42.7441555  26.6899817  11.6072930  42.9123762
  28.0329839  11.4607147  43.5955588  27.3743196  19.5658595  45.2441449
  26.7214646  19.8134502  44.5893902  27.7523576  18.7522733  44.9103927
  24.3350370  29.6018288  39.3469620  24.5172764  28.7839944  39.8097372
  25.1583356  29.8185980  38.9094510  24.6692535  28.5286473  36.6084668
  25.1980302  28.0178928  35.9954830  24.9320755  28.2129003  37.4730201
  23.4230769  20.3078406  51.7307486  22.7471406  20.2072535  52.4009862
  24.2458403  20.1517619  52.1943484  15.1709628  26.5450342  44.3520002
  15.7563065  25.7994030  44.4847906  14.9734466  26.8554299  45.2356665
  18.0248283  29.5801590  39.3682444  17.3558658  30.0647717  38.8846484
  17.8861153  29.8270810  40.2825822   9.7627283  19.1155942  43.0724445
   9.8011382  18.5819533  43.8661563   9.2567576  18.5891148  42.4535422
  22.1653552  31.6145333  45.9665102  22.7171860  31.7776955  46.7314188
  22.5059745  32.2049771  45.2945127  17.1418045  13.9620483  46.5686987
  17.2059372  14.8235314  46.1564385  17.0785165  13.3494485  45.8359346
  27.0164426  26.4406591  51.8213757  27.5604330  27.0536549  51.3268712
  26.4351271  26.9986169  52.3380770  13.3935860  17.8420045  36.1478376
  13.6889301  16.9330723  36.0945430  12.4923896  17.8207784  35.8259378
  25.3021939  29.5627309  42.9528785  25.1773079  28.7617049  42.4439730
  25.9601030  30.0573502  42.4642754  16.9230107  15.9176041  42.1305925
  16.2016693  16.5312009  41.9913398  17.7123363  16.4533806  42.0522571
  27.3656847  27.3636329  44.5808335  26.4187183  27.2441680  44.5086661
  27.7139621  26.4758827  44.6634596  19.7256421  13.2530468  48.4046576
  20.2490823  13.4992764  49.1672886  19.5068754  14.0850503  47.9849714
  15.1223702  15.5234142  36.2717701  14.7936408  14.6431521  36.0892807
  15.4763073  15.4681811  37.1594091  24.3703281  27.1589045  40.7812687
  24.2228243  26.2305752  40.9620257  25.1956774  27.1809136  40.2969762
  18.2365525  15.8107112  36.6393179  18.5761598  16.3393033  35.9171787
  18.6837646  16.1487518  37.4151745  27.9737403  27.9817604  41.8677560
  28.8983950  27.7760465  41.7302011  27.8052706  27.7334005  42.7766901
  20.9308966  14.1944163  46.0896247  20.5905786  13.3951976  46.4916927
  20.2247972  14.4945874  45.5173080  21.5825438  11.2793475  44.5423570
  22.4051507  10.8053953  44.4202460  21.8263501  12.0583959  45.0422256
  20.2233672  14.3081734  34.8386472  20.9442035  14.6862986  34.3350189
  19.5998976  15.0270610  34.9421450  24.3664795  15.0126883  35.7744804
  24.5828409  15.8951521  35.4733632  23.8858862  14.6213096  35.0450446
  19.1064016  17.9712596  42.3515549  18.9608597  18.2852899  43.2439830
  18.6289220  18.5897496  41.7986447  20.9660399  14.9615144  42.3996438
  20.9521968  14.0656237  42.0628736  21.6832827  14.9685808  43.0334724
  22.8186530  15.3952484  44.4449566  22.5604308  16.3169555  44.4433896
  22.2871570  14.9982919  45.1350030  27.7632719  28.5003271  37.2239651
  27.9369596  27.9349694  36.4713503  28.2561610  29.3004166  37.0419141
  13.5809679  20.5117940  45.2903210  13.0363147  21.2877748  45.4223484
  14.4589028  20.8588745  45.1322331  20.3697295  13.8429524  37.6684008
  20.4913206  12.9146170  37.8674896  20.0799338  13.8568210  36.7562324
  23.2388486  11.5284435  40.8050728  23.2610182  11.5923768  39.8502708
  23.6556545  10.6888943  40.9991234  33.6172110  21.2639694  38.8429951
  34.0603256  20.5147019  38.4449074  32.7398620  21.2549830  38.4603683
  14.3675700  19.6387837  48.1833367  13.6257437  19.7870472  48.7697997
  14.0468445  19.8996102  47.3200116  22.3119363  29.1803815  47.9813757
  22.6206490  28.9352962  48.8536456  23.1094845  29.3850453  47.4932627
  22.3339975  31.3341724  40.2119133  21.8944965  30.8418103  40.9051990
  23.0848092  30.7914692  39.9711208  14.8132314  27.5253265  40.2143761
  15.6390334  27.2257037  39.8342405  14.4626366  26.7560888  40.6633550
  19.7813847  26.8779733  42.2841435  19.1593857  26.2150439  41.9843663
  20.4518714  26.9040865  41.6015083  13.0140919  25.4439592  41.1732695
  12.1772828  25.0161766  40.9916696  12.9864565  25.6372035  42.1103486
  30.3393220  25.9002645  51.1575078  29.5488764  25.8826784  50.6179577
  30.1026575  26.4390938  51.9124115  30.4591096  22.7495111  48.4707807
  30.5089100  22.5845119  49.4123329  30.3505019  21.8822370  48.0805687
  19.3427354  25.4283657  35.7599895  19.4915475  26.1119121  35.1066568
  20.1493798  25.4088747  36.2749351  27.7494858  18.7326039  49.7867113
  28.6504721  18.5932504  49.4951111  27.8242832  18.8980494  50.7265291
  22.0837663  16.1092894  48.6320300  21.2140973  16.4026460  48.3602888
  22.3197144  16.6933339  49.3527563  31.9609292  25.1692053  48.7149828
  31.6694101  25.5322033  49.5513289  31.3481424  24.4559061  48.5363160
  33.1604975  22.7344932  41.2352398  33.9951866  23.1734737  41.3989959
  33.2964103  22.2583586  40.4160644  30.2096481  20.2924667  47.1829886
  30.6850602  20.4852314  46.3748737  29.2862046  20.3483853  46.9373270
  17.0979987  21.4548834  36.7660964  16.8526029  20.5511164  36.9641175
  17.2675902  21.4565985  35.8240442  24.7876697  12.3272511  46.1485720
  25.3058641  13.0633538  45.8232209  24.4331830  12.6336504  46.9832479
  16.3675635  17.1877192  34.2647126  15.6744880  17.2621547  33.6087162
  16.1227387  16.4237536  34.7868643  25.0389291   8.7472793  41.6686617
  25.3191045   8.0795982  42.2947043  25.8239898   8.9401889  41.1561280
  22.8422760  27.9231787  33.2311643  22.2696727  28.5421974  32.7782115
  23.4155553  28.4731149  33.7651565  28.9098150  17.1690427  45.4158192
  29.8615572  17.2688525  45.4370416  28.7401600  16.3768696  45.9256276
  26.9312529  14.2546011  45.6017593  26.3362461  14.5351023  44.9064081
  26.6462226  14.7439912  46.3734334  26.0620020  28.2068937  34.3620225
  26.9950693  28.1414499  34.5653101  25.9743232  29.0425204  33.9034758
  31.3886227  20.3896547  44.5300491  31.3562547  19.4512548  44.7160175
  31.9986851  20.4680584  43.7966316  31.5380716  17.1807590  44.5758775
  31.0219765  16.3966047  44.3888703  32.4220664  16.8526307  44.7405294
  29.1991443  10.9248606  40.5354587  29.0016264  10.6163694  41.4197919
  29.8091148  11.6510245  40.6652517  37.2062777  21.4512554  43.6706528
  37.9366166  21.1897842  44.2314231  36.5969723  20.7141276  43.7108596
  35.2878074  19.5920416  44.2680979  34.5611238  19.4576381  43.6597471
  34.8725361  19.8997245  45.0737697  23.1108251  23.3110346  52.0328352
  24.0311260  23.4888945  52.2268399  23.0757834  22.3666392  51.8808052
  21.4112475  17.1842576  30.5082581  20.5043931  16.8875689  30.5845294
  21.6888456  16.8872395  29.6416867  12.3290416  18.5048940  40.9581627
  12.0093200  17.6514248  40.6656001  11.7823844  18.7197518  41.7139594
  16.1070323  21.2211381  44.6751134  16.3256333  22.1528489  44.6939167
  16.5196097  20.8619355  45.4605937  23.0274541  11.7279466  36.6626822
  22.2175269  11.3826551  37.0382068  23.7158958  11.4187010  37.2514433
  24.9565089  10.8057513  38.2851119  25.5096128  11.2252966  38.9441142
  25.1935176   9.8793261  38.3274075  20.1811260  14.0429512  30.6494560
  21.0430424  14.3684410  30.9090377  20.3661604  13.2561008  30.1367626
  12.1978676  22.1251851  42.9274749  11.5042147  21.7105804  42.4144703
  12.9451667  22.1672388  42.3308167  28.3343896  12.9158038  37.7929783
  27.7542566  13.5742842  37.4107835  28.0679829  12.0935383  37.3817200
  26.7847463  12.3163096  39.9951103  27.2847241  12.4279630  39.1865422
  27.4283071  12.0124149  40.6351912  20.8429459  20.2241725  52.8818944
  20.3596540  21.0242086  53.0882833  20.9290398  20.2349670  51.9286388
  14.1115418  22.0570105  40.8040763  14.0886106  22.1557792  39.8522647
  14.4216055  22.9035256  41.1257930  16.7702796  24.1146260  44.9187378
  17.7246050  24.0830202  44.8517309  16.5715320  23.6536884  45.7337604
  17.3602178  22.6847376  47.4858176  18.1795067  23.1791455  47.5093013
  17.6338986  21.7679344  47.4575743  27.1168775  15.0758128  36.8486131
  26.2294630  15.3607779  36.6306326  27.5322764  14.9151892  36.0013408
  30.4683311  15.1004649  40.5640470  31.2443701  15.5901102  40.8365087
  29.7431445  15.5262704  41.0212340  32.9055869  15.8132269  41.6214411
  33.5000360  15.5728005  40.9107719  32.9782453  15.0939399  42.2487947
  15.1253025  29.6565880  41.9357576  14.9907493  28.8966281  41.3695574
  14.7085087  30.3806779  41.4686365  30.9014604  16.3802396  37.8886541
  30.6451538  15.9799032  38.7194748  30.2767472  17.0946190  37.7636680
  35.2126942  19.1198470  40.3957832  34.6526500  19.1891659  41.1689394
  34.6070445  18.9439454  39.6757328  18.2822151  30.5535197  42.1476018
  18.1654535  31.4980629  42.0454709  17.4614597  30.2508758  42.5361818
  12.6137093  17.0185510  48.1850373  13.2595956  16.5084464  48.6737598
  12.4054244  17.7554192  48.7593798  25.1390485  24.0866358  53.6842513
  26.0081644  24.2607010  53.3229148  24.6597236  24.9060774  53.5618243
  21.1340703  11.2825555  33.9374269  21.1219373  12.2267395  34.0942540
  22.0264125  11.0995700  33.6433730  19.3076665  31.2063459  45.3631947
  20.2103912  31.2387069  45.6798442  19.0814035  30.2763909  45.3778283
  21.0630267  29.9594445  42.0242025  20.1125898  29.9596307  41.9106398
  21.3662753  29.2127180  41.5078060  24.9492822   7.8768331  38.1920206
  24.1825218   7.3226818  38.3376888  25.3603527   7.9490200  39.0534357
  36.7982960  35.7954983  43.0887788  37.4361370  35.6761731  42.3851128
  36.6803803  36.7435827  43.1475740  33.6072667  35.7482412  43.0249313
  33.2691178  35.6323476  42.1369847  34.4762435  35.3473577  43.0050319
  29.4659482  37.6017888  39.0146203  28.9024348  37.5107825  38.2462491
  29.3511878  36.7817792  39.4948696  34.0892450  36.9017263  48.9835518
  34.0781091  36.5070062  48.1116022  34.2513089  36.1683336  49.5769290
  27.0123914  39.0969080  41.8530424  27.8045206  38.7559904  41.4376723
  27.2520565  39.2064055  42.7732577  35.0459041  41.2688856  34.3260668
  34.3947021  41.8542936  33.9394682  35.8403404  41.7995051  34.3855706
  30.8099711  39.6854375  47.9314702  30.5189577  40.5900006  47.8161368
  31.4456695  39.7270903  48.6458772  31.7355918  37.0631224  44.5216062
  32.3319490  36.8387246  43.8073025  31.7930889  36.3215969  45.1241510
  36.3524229  33.5206437  40.1640996  37.1387318  33.1025860  39.8131413
  36.6162933  34.4252530  40.3322644  36.5234306  38.9579288  34.8629653
  35.8880139  39.0313914  35.5750557  36.1931713  39.5472886  34.1848732
  41.7532656  33.4581671  41.0673974  42.4857828  32.8880887  41.3011804
  40.9972012  33.0703271  41.5080480  33.3708776  35.8808912  38.2637317
  33.0066983  35.3539533  38.9750238  34.2275892  35.4907381  38.0903802
  39.2758076  27.1703245  45.5268583  38.9441401  28.0398656  45.3029798
  38.6803690  26.8539529  46.2062613  33.0114263  30.9098812  33.2598665
  33.1788665  31.7779048  33.6269136  32.8211432  31.0726093  32.3359955
  35.7689596  39.3715791  44.9264496  35.4690319  40.2740829  44.8180303
  35.4240655  39.1047974  45.7785649  29.2202077  35.8229587  40.9601200
  28.2952574  35.6905802  41.1678892  29.4686491  36.6023807  41.4571143
  39.1686740  31.8898331  42.6061933  38.2603617  31.8213739  42.3120694
  39.1174336  32.3670276  43.4343759  26.5810888  35.4662861  41.7944989
  26.7103270  35.7197340  42.7084401  25.9008340  36.0590569  41.4749644
  30.7510376  46.1360111  37.8935463  30.6734405  47.0867936  37.9723944
  30.1472019  45.7905983  38.5510390  33.2427606  33.3087976  50.5496830
  32.4660940  33.8681897  50.5399695  33.8818169  33.7944759  51.0711700
  41.0348386  30.0914769  44.3839807  40.3922766  30.3847302  43.7379602
  40.5303315  29.9767690  45.1893004  38.6888550  33.8377942  35.0725666
  39.6006406  34.0705329  34.8973364  38.1798197  34.4214987  34.5100745
  31.4973978  36.1173430  50.1114797  32.2388662  36.6558474  49.8349621
  30.7910963  36.7439719  50.2686349  36.9729317  38.2602570  48.7086959
  37.3812674  37.8184981  47.9641591  36.2506579  37.6855198  48.9621152
  33.3260388  33.1975177  46.0820516  34.1721583  33.6214591  46.2255165
  33.2659025  32.5408801  46.7759079  37.2958132  38.8203761  42.4639248
  36.6666995  38.9849475  41.7615316  36.9083794  39.2345370  43.2350212
  41.1747364  39.7558199  39.8183611  40.4898402  40.1357100  39.2680645
  41.2591213  40.3653525  40.5515559  36.4759833  30.8579545  47.7401689
  36.2320765  31.6121606  47.2035965  36.7519763  31.2364893  48.5748936
  38.4298296  37.4018158  46.4178955  38.6415191  38.0449918  45.7413336
  38.3828044  36.5680474  45.9500885  36.0324525  30.0135978  43.3215527
  35.1709004  30.3117232  43.6132265  36.0586959  30.2306377  42.3896560
  32.8486094  38.5578169  39.7289333  33.3124440  38.8365872  38.9393955
  32.5842892  37.6561614  39.5462423  29.7410175  38.1049650  42.6669096
  30.3111532  38.5336919  42.0286581  30.3318287  37.8232235  43.3653282
  31.7854980  34.6801321  36.5378898  32.4879023  35.1322365  37.0052824
  31.4535609  34.0385140  37.1658791  30.2335342  33.2713078  50.9130107
  29.6034002  33.9529359  51.1465504  30.1271429  33.1596160  49.9683246
  25.5280314  32.9384874  41.8396031  24.7379368  33.1942402  41.3636142
  26.0191561  33.7533212  41.9448072  39.5444124  40.2790113  44.5901312
  40.3661567  39.8770300  44.3083994  39.5406526  40.1758347  45.5417428
  27.4795059  33.3029453  38.7979508  26.6826223  33.4148147  39.3163004
  27.2520652  33.6416105  37.9320399  33.3100727  39.8274156  46.7462023
  33.3745160  40.2894564  47.5820195  32.6011651  39.1971521  46.8744333
  23.8118017  33.1915364  44.2711022  24.0626055  34.0762374  44.5368598
  24.3477565  33.0119966  43.4986114  33.0248745  41.4942264  36.6141003
  32.8894419  42.3393800  37.0425851  33.5658557  41.6961542  35.8506937
  29.5116084  27.5733844  53.2755358  29.1183030  27.0200042  53.9503003
  30.3282225  27.8844422  53.6661876  28.2873027  42.1283458  39.2691681
  28.4639655  43.0501423  39.0812665  29.0829860  41.8141877  39.6986061
  32.4284045  28.9891723  50.8675615  33.1693759  29.5898876  50.7880077
  32.6601968  28.2469361  50.3093658  27.5725383  34.1748090  49.1453845
  27.4578898  33.2733347  49.4460944  26.7169901  34.4211787  48.7938661
  34.6517221  42.1165830  50.7441345  34.2081075  41.3302209  50.4262250
  35.3134435  42.3044981  50.0785236  29.4104342  43.6461632  45.2702024
  29.9611767  43.5178695  44.4979018  28.5715818  43.9456521  44.9196917
  36.7498459  42.3968630  48.7722747  36.7316934  43.2177511  48.2803016
  37.6718379  42.2722706  48.9972888  33.2071513  39.9112760  49.6146255
  33.7399850  39.1501048  49.3845563  32.6785594  39.6186412  50.3570409
  36.3741208  25.0172826  45.1439897  36.0305478  25.9074467  45.0679007
  36.7420171  24.8274483  44.2809482  24.4427059  37.3406356  37.9628499
  25.2802281  37.7503365  37.7462206  24.6205327  36.4005798  37.9328693
  36.3391491  35.0081437  33.6512332  35.8238114  35.7786042  33.8900719
  36.0668799  34.3346573  34.2745393  33.9238602  29.8531138  38.7097570
  33.0680198  29.4637988  38.5303209  34.3365554  29.9323098  37.8497356
  35.4537749  27.3877481  43.1089130  34.9502544  27.3507616  42.2956935
  35.7468356  28.2970224  43.1685787  31.6980635  27.4716211  42.1155312
  32.5633631  27.2759019  41.7561201  31.7658143  27.2426562  43.0424668
  41.3125765  37.7613792  35.5865505  40.5355208  37.4224951  35.1420667
  41.9917246  37.7666415  34.9120470  36.1277794  32.8808529  35.4772113
  35.8227930  33.1954678  36.3282256  37.0808236  32.9589949  35.5199446
  34.5724226  39.0398752  37.1265067  34.0445588  38.3051512  36.8138304
  34.0711729  39.8173429  36.8805035  39.5517072  37.2347773  42.2432113
  38.8940746  37.9247034  42.3312242  40.3557471  37.6244205  42.5866100
  29.3042954  29.7018419  39.4871678  29.8786706  29.4793600  38.7544871
  29.8913936  29.7707113  40.2400280  38.3622531  35.5892145  40.2936055
  38.8754413  36.2222137  40.7957765  39.0123755  34.9893341  39.9279415
  31.6065621  26.5759668  38.2146748  30.9530034  26.2608685  37.5903363
  31.5646095  25.9535408  38.9406571  35.6244905  45.5676470  33.0496726
  34.9506604  45.8708167  33.6581684  36.0110727  46.3705550  32.7002183
  34.8403362  33.0641601  42.5394395  33.9225923  33.2856548  42.3816084
  35.2563505  33.1387912  41.6806103  35.6238409  34.4633017  37.6697076
  36.3710228  34.9754414  37.3604198  35.8929999  34.1417069  38.5301469
  33.8965060  36.9591557  34.6524030  32.9876279  36.6750590  34.7496500
  33.9260143  37.3790636  33.7927337  39.1284327  40.5698147  38.4215198
  38.6746654  39.7289057  38.4780388  38.4978294  41.2059545  38.7589978
  38.0717247  31.4990133  39.6515865  37.3340003  30.9867519  39.9826108
  38.3244020  31.0590515  38.8399142  37.5717266  42.4074644  39.3565016
  37.8640241  42.9679701  38.6377381  38.0815887  42.7003205  40.1118175
  38.1728874  24.2766385  40.2457634  38.4787751  23.4163748  39.9583549
  38.8981479  24.8684005  40.0456628  24.4653230  34.6797072  38.6339232
  24.2677630  34.0866432  37.9090299  23.9099894  34.3749282  39.3515171
  32.4449954  34.5720178  40.7533825  32.4998563  33.6194014  40.6776302
  31.6341156  34.7279617  41.2375124  33.5941147  38.5000301  31.9912109
  33.1560577  37.7836160  31.5317746  34.3351588  38.7276416  31.4297200
  30.3842314  33.1897238  38.5124204  29.5710179  33.4891408  38.9189396
  30.8801308  32.7952927  39.2298686  32.5350891  43.1854995  40.4458469
  32.4927070  43.4115841  39.5167001  33.4513590  42.9518369  40.5944270
  35.9816525  33.6539062  47.3439098  36.3365913  33.8810535  48.2033564
  36.6288656  33.9857439  46.7216353  41.7114262  36.7757498  38.0488427
  41.5732161  36.9659094  37.1209616  41.3550481  37.5376881  38.5056478
  29.8756388  30.7615593  44.1285439  30.5155768  30.6204352  43.4308403
  29.0433919  30.4750107  43.7524041  41.7383642  38.8434025  43.0599699
  42.1720148  38.7509314  43.9082753  42.4515223  38.8191526  42.4219715
  30.6516692  40.0618024  40.2420432  31.4457291  39.5668344  40.0403007
  29.9408385  39.5335887  39.8788137  35.4711537  42.4436119  44.5932799
  35.5248559  43.0127056  45.3610515  34.6026318  42.6138004  44.2286836
  26.8785005  30.7315918  38.9058426  27.1391822  31.6461252  38.7967586
  27.7002177  30.2640361  39.0555039  28.3509930  32.1453675  46.0757251
  29.0232984  31.9371038  45.4269899  27.5239717  31.9475761  45.6362483
  42.5999191  38.8857726  45.5932584  42.7935081  39.7903536  45.8391859
  42.4999810  38.4265145  46.4271169  34.2535502  28.7715616  48.0922911
  33.6063417  29.4705566  47.9987388  35.0236518  29.2051760  48.4599160
  37.6614300  39.0364469  51.1673465  37.5099806  38.8075020  50.2503548
  37.6518980  39.9935070  51.1804810  34.4299636  36.6096381  46.1519731
  35.3591696  36.7607541  45.9788698  34.0090666  36.6980402  45.2968378
  33.2287968  40.6347046  43.9218269  33.0899054  40.2665830  44.7944207
  32.4402564  41.1494685  43.7502227  33.8236120  45.7356142  35.2643805
  33.9987876  45.2644185  36.0789428  33.1368908  46.3621908  35.4925066
  34.7793183  40.0128648  41.3107107  34.4443016  39.9729418  42.2064756
  34.2797129  39.3473364  40.8377517  28.7537427  35.4196278  46.8359688
  28.6157225  34.6876517  47.4371227  29.6642351  35.3305179  46.5543875
  31.3819728  35.1316238  46.3243367  32.0919347  34.4909430  46.2829986
  31.3389036  35.3829133  47.2469548  39.3706507  42.0683591  49.2449947
  39.3119053  41.3842811  48.5780530  39.7726025  42.8102581  48.7930573
  30.0948662  32.1181456  48.1439007  29.5586019  31.6672194  48.7960603
  29.5065370  32.2527364  47.4009471  28.3897205  48.8845505  42.0383665
  28.6293804  49.5164029  42.7162684  27.5466402  48.5333545  42.3249025
  39.3723914  40.0323175  47.4763926  38.4850693  39.6949097  47.5990325
  39.9422465  39.3006206  47.7132692  21.0253061  36.3647267  40.8006978
  21.7124101  36.0508997  40.2127993  20.8701190  37.2688631  40.5274229
  25.8287783  31.2537463  45.2292001  25.7445972  30.6463133  44.4942411
  25.0070490  31.7446482  45.2301498  32.9025067  44.6924627  44.4425169
  32.8295239  45.4979599  44.9544474  32.4602460  44.8916593  43.6173191
  32.6914847  43.9296397  37.9527991  31.9082369  44.4718078  38.0466215
  33.3907592  44.4470377  38.3522232  36.0011497  29.7391027  40.5962196
  36.4980197  28.9860989  40.2763267  35.2298479  29.7755344  40.0305406
  43.8541255  35.4431392  42.2380488  43.8431131  36.3256108  41.8674421
  42.9858634  35.0902943  42.0435025  35.3623751  44.5911461  46.5983328
  36.0751723  45.2258926  46.5259230  34.8713780  44.6875327  45.7823330
  37.0841278  38.4962714  38.1700620  36.1497557  38.6164177  38.0005324
  37.2617946  37.5935181  37.9060630  32.5846466  31.8808410  40.3233881
  32.2144253  31.3279450  41.0114787  33.0805558  31.2766543  39.7708881
  40.4713829  34.3380033  38.7050654  40.9374281  35.1708025  38.6310957
  40.9221330  33.8725015  39.4095912  30.4135664  42.3405905  47.4188899
  31.1145124  42.9742388  47.5718293  29.9430779  42.6820636  46.6584538
  38.5390060  40.6823855  35.7036806  38.8149904  40.5680449  36.6130680
  37.6694559  40.2841340  35.6648979  38.4430492  26.7060620  42.7441555
  37.5293572  26.9364847  42.9123762  38.8723593  26.7899064  43.5955588
  38.2136950  34.8950512  45.2441449  37.5608401  35.1426420  44.5893902
  38.5917330  34.0814651  44.9103927  35.1744124  44.9310206  39.3469620
  35.3566519  44.1131861  39.8097372  35.9977110  45.1477898  38.9094510
  35.5086290  43.8578391  36.6084668  36.0374056  43.3470845  35.9954830
  35.7714509  43.5420921  37.4730201  34.2624523  35.6370323  51.7307486
  33.5865160  35.5364453  52.4009862  35.0852157  35.4809537  52.1943484
  26.0103382  41.8742260  44.3520002  26.5956819  41.1285948  44.4847906
  25.8128221  42.1846217  45.2356665  28.8642038  44.9093507  39.3682444
  28.1952413  45.3939635  38.8846484  28.7254907  45.1562728  40.2825822
  20.6021037  34.4447860  43.0724445  20.6405137  33.9111451  43.8661563
  20.0961330  33.9183066  42.4535422  33.0047306  46.9437251  45.9665102
  33.5565614  47.1068872  46.7314188  33.3453500  47.5341689  45.2945127
  27.9811800  29.2912401  46.5686987  28.0453126  30.1527232  46.1564385
  27.9178920  28.6786402  45.8359346  27.4564072  31.3635533  50.2160021
  28.0836111  30.9812611  50.8297546  26.5991991  31.1449735  50.5815714
  36.1415694  44.8919226  42.9528785  36.0166833  44.0908966  42.4439730
  36.7994785  45.3865420  42.4642754  27.7623862  31.2467959  42.1305925
  27.0410448  31.8603927  41.9913398  28.5517118  31.7825724  42.0522571
  38.2050602  42.6928246  44.5808335  37.2580937  42.5733598  44.5086661
  38.5533375  41.8050745  44.6634596  30.5650175  28.5822385  48.4046576
  31.0884577  28.8284682  49.1672886  30.3462509  29.4142420  47.9849714
  35.2097035  42.4880963  40.7812687  35.0621998  41.5597670  40.9620257
  36.0350529  42.5101053  40.2969762  38.8131157  43.3109521  41.8677560
  39.7377705  43.1052383  41.7302011  38.6446460  43.0625923  42.7766901
  31.7702720  29.5236081  46.0896247  31.4299541  28.7243894  46.4916927
  31.0641727  29.8237791  45.5173080  32.4219192  26.6085393  44.5423570
  33.2445261  26.1345871  44.4202460  32.6657256  27.3875877  45.0422256
  35.2058550  30.3418800  35.7744804  35.4222164  31.2243438  35.4733632
  34.7252617  29.9505014  35.0450446  29.9457771  33.3004514  42.3515549
  29.8002352  33.6144817  43.2439830  29.4682975  33.9189414  41.7986447
  31.8054154  30.2907062  42.3996438  31.7915723  29.3948155  42.0628736
  32.5226582  30.2977725  43.0334724  33.6580285  30.7244402  44.4449566
  33.3998062  31.6461472  44.4433896  33.1265325  30.3274836  45.1350030
  38.6026473  43.8295189  37.2239651  38.7763351  43.2641611  36.4713503
  39.0955365  44.6296084  37.0419141  24.4203433  35.8409858  45.2903210
  23.8756901  36.6169666  45.4223484  25.2982783  36.1880662  45.1322331
  31.2091050  29.1721442  37.6684008  31.3306961  28.2438088  37.8674896
  30.9193092  29.1860128  36.7562324  34.0782240  26.8576352  40.8050728
  34.1003937  26.9215685  39.8502708  34.4950299  26.0180861  40.9991234
  44.4565864  36.5931612  38.8429951  44.8997011  35.8438937  38.4449074
  43.5792375  36.5841748  38.4603683  39.5901646  43.1461953  34.3236549
  40.2852550  43.7668646  34.5423864  39.9324796  42.2957304  34.5988927
  25.2069455  34.9679754  48.1833367  24.4651191  35.1162390  48.7697997
  24.8862199  35.2288020  47.3200116  41.4893069  40.5961659  35.8523880
  42.0144393  40.9348932  35.1273200  41.4015421  39.6608674  35.6687015
  33.1513118  44.5095732  47.9813757  33.4600244  44.2644879  48.8536456
  33.9488600  44.7142371  47.4932627  33.1733730  46.6633642  40.2119133
  32.7338720  46.1710021  40.9051990  33.9241847  46.1206610  39.9711208
  25.6526069  42.8545183  40.2143761  26.4784089  42.5548955  39.8342405
  25.3020121  42.0852805  40.6633550  30.6207602  42.2071651  42.2841435
  29.9987611  41.5442356  41.9843663  31.2912469  42.2332783  41.6015083
  23.8534674  40.7731509  41.1732695  23.0166582  40.3453684  40.9916696
  23.8258319  40.9663953  42.1103486  30.6932129  30.6853439  51.8773941
  30.7420285  31.5615562  51.4951711  31.2354644  30.1430832  51.3045584
  41.2984850  38.0787029  48.4707807  41.3482855  37.9137036  49.4123329
  41.1898773  37.2114288  48.0805687  30.1821109  40.7575575  35.7599895
  30.3309229  41.4411039  35.1066568  30.9887552  40.7380665  36.2749351
  38.5888612  34.0617957  49.7867113  39.4898475  33.9224422  49.4951111
  38.6636587  34.2272412  50.7265291  32.9231418  31.4384812  48.6320300
  32.0534727  31.7318378  48.3602888  33.1590898  32.0225257  49.3527563
  43.9998729  38.0636850  41.2352398  44.8345621  38.5026654  41.3989959
  44.1357858  37.5875503  40.4160644  41.0490235  35.6216585  47.1829886
  41.5244357  35.8144231  46.3748737  40.1255800  35.6775771  46.9373270
  35.6270452  27.6564429  46.1485720  36.1452395  28.3925455  45.8232209
  35.2725584  27.9628422  46.9832479  35.8783046  24.0764711  41.6686617
  36.1584800  23.4087900  42.2947043  36.6633653  24.2693807  41.1561280
  33.6816514  43.2523705  33.2311643  33.1090481  43.8713892  32.7782115
  34.2549308  43.8023067  33.7651565  39.7491904  32.4982345  45.4158192
  40.7009327  32.5980443  45.4370416  39.5795355  31.7060614  45.9256276
  37.7706284  29.5837928  45.6017593  37.1756216  29.8642941  44.9064081
  37.4855980  30.0731829  46.3734334  36.9013774  43.5360855  34.3620225
  37.8344447  43.4706417  34.5653101  36.8136987  44.3717122  33.9034758
  39.5301791  42.8526725  31.3224173  39.4515422  42.5186589  32.2159931
  40.3511457  43.3448493  31.3215645  42.2279982  35.7188465  44.5300491
  42.1956302  34.7804465  44.7160175  42.8380606  35.7972501  43.7966316
  42.3774470  32.5099508  44.5758775  41.8613519  31.7257965  44.3888703
  43.2614419  32.1818225  44.7405294  40.0385197  26.2540524  40.5354587
  39.8410018  25.9455612  41.4197919  40.6484903  26.9802163  40.6652517
  48.0456532  36.7804472  43.6706528  48.7759920  36.5189760  44.2314231
  47.4363477  36.0433194  43.7108596  46.1271829  34.9212334  44.2680979
  45.4004992  34.7868299  43.6597471  45.7119116  35.2289163  45.0737697
  33.9502005  38.6402264  52.0328352  34.8705015  38.8180863  52.2268399
  33.9151588  37.6958309  51.8808052  23.1684170  33.8340858  40.9581627
  22.8486955  32.9806166  40.6656001  22.6217598  34.0489436  41.7139594
  26.9464078  36.5503299  44.6751134  27.1650088  37.4820406  44.6939167
  27.3589852  36.1911273  45.4605937  33.8668296  27.0571384  36.6626822
  33.0569024  26.7118469  37.0382068  34.5552713  26.7478928  37.2514433
  35.7958844  26.1349431  38.2851119  36.3489883  26.5544884  38.9441142
  36.0328930  25.2085179  38.3274075  31.8191943  32.1236504  54.0653882
  31.7188670  33.0730861  53.9965974  31.6013485  31.7954743  53.1929953
  23.0372430  37.4543769  42.9274749  22.3435902  37.0397722  42.4144703
  23.7845421  37.4964306  42.3308167  39.1737651  28.2449956  37.7929783
  38.5936320  28.9034760  37.4107835  38.9073584  27.4227300  37.3817200
  37.6241217  27.6455013  39.9951103  38.1240996  27.7571548  39.1865422
  38.2676825  27.3416066  40.6351912  31.6823213  35.5533643  52.8818944
  31.1990295  36.3534003  53.0882833  31.7684152  35.5641588  51.9286388
  24.9509173  37.3862023  40.8040763  24.9279861  37.4849710  39.8522647
  25.2609809  38.2327174  41.1257930  27.6096551  39.4438178  44.9187378
  28.5639804  39.4122120  44.8517309  27.4109074  38.9828802  45.7337604
  28.1995933  38.0139294  47.4858176  29.0188822  38.5083373  47.5093013
  28.4732741  37.0971262  47.4575743  37.9562529  30.4050046  36.8486131
  37.0688384  30.6899697  36.6306326  38.3716518  30.2443810  36.0013408
  41.3077065  30.4296567  40.5640470  42.0837455  30.9193020  40.8365087
  40.5825199  30.8554621  41.0212340  43.7449624  31.1424186  41.6214411
  44.3394115  30.9019922  40.9107719  43.8176207  30.4231317  42.2487947
  25.9646779  44.9857797  41.9357576  25.8301247  44.2258198  41.3695574
  25.5478842  45.7098697  41.4686365  37.1005742  40.1694721  30.9434151
  37.8041593  40.3744723  31.5591807  36.3768391  40.7371483  31.2083235
  37.9303553  35.9204582  37.0636421  37.8738754  36.3773134  36.2244054
  38.4831895  35.1595267  36.8859264  41.7408359  31.7094314  37.8886541
  41.4845293  31.3090950  38.7194748  41.1161227  32.4238108  37.7636680
  46.0520697  34.4490387  40.3957832  45.4920254  34.5183577  41.1689394
  45.4464200  34.2731372  39.6757328  29.1215905  45.8827114  42.1476018
  29.0048289  46.8272547  42.0454709  28.3008352  45.5800676  42.5361818
  39.0092440  40.6077250  32.9932611  39.8438044  40.1758449  32.8110086
  38.8476783  40.4359264  33.9209506  38.6638332  37.1109363  34.3588950
  38.6087136  36.9453635  33.4177395  38.0384387  37.8185396  34.5151140
  23.4530847  32.3477428  48.1850373  24.0989711  31.8376382  48.6737598
  23.2447998  33.0846109  48.7593798  30.1470419  46.5355376  45.3631947
  31.0497666  46.5678986  45.6798442  29.9207790  45.6055827  45.3778283
  31.9024021  45.2886363  42.0242025  30.9519652  45.2888224  41.9106398
  32.2056508  44.5419097  41.5078060  35.7886577  23.2060249  38.1920206
  35.0218973  22.6518736  38.3376888  36.1997282  23.2782118  39.0534357
  27.7928338  29.4945045  52.2825387  28.6559800  29.1381850  52.4928711
  27.2193749  29.1558940  52.9700791  40.3053237  52.9309806  39.0146203
  39.7418102  52.8399743  38.2462491  40.1905632  52.1109710  39.4948696
  37.8517669  54.4260997  41.8530424  38.6438961  54.0851822  41.4376723
  38.0914319  54.5355972  42.7732577  39.8108423  53.6869911  34.7247803
  40.5839299  53.1398898  34.5860679  40.1633822  54.5514160  34.9362264
  42.1474701  49.8462577  32.3566253  42.4000221  49.3244098  31.5949716
  41.2099260  49.6828722  32.4592936  47.1917983  48.8498355  40.1640996
  47.9781073  48.4317778  39.8131413  47.4556688  49.7544447  40.3322644
  41.8670989  51.7490683  34.5590628  41.7507247  51.0735586  35.2271712
  41.9773249  51.2623057  33.7422781  44.2102530  51.2100830  38.2637317
  43.8460738  50.6831451  38.9750238  45.0669646  50.8199299  38.0903802
  43.8508017  46.2390729  33.2598665  44.0182420  47.1070966  33.6269136
  43.6605186  46.4018011  32.3359955  40.0595832  51.1521505  40.9601200
  39.1346328  51.0197719  41.1678892  40.3080245  51.9315724  41.4571143
  43.8297238  48.6948387  34.2445332  43.7096863  49.1405438  35.0830812
  43.1349827  49.0433705  33.6858870  37.4204643  50.7954779  41.7944989
  37.5497024  51.0489258  42.7084401  36.7402094  51.3882487  41.4749644
  49.5282304  49.1669860  35.0725666  50.4400160  49.3997247  34.8973364
  49.0191951  49.7506904  34.5100745  46.8718279  45.3427896  43.3215527
  46.0102758  45.6409150  43.6132265  46.8980714  45.5598295  42.3896560
  43.6879849  53.8870087  39.7289333  44.1518194  54.1657790  38.9393955
  43.4236647  52.9853531  39.5462423  42.6248735  50.0093239  36.5378898
  43.3272778  50.4614283  37.0052824  42.2929363  49.3677058  37.1658791
  36.3674069  48.2676792  41.8396031  35.5773123  48.5234320  41.3636142
  36.8585316  49.0825129  41.9448072  38.3188814  48.6321371  38.7979508
  37.5219977  48.7440065  39.3163004  38.0914406  48.9708023  37.9320399
  34.6511772  48.5207282  44.2711022  34.9019810  49.4054292  44.5368598
  35.1871320  48.3411884  43.4986114  37.3171897  54.3409620  37.1868928
  37.8296417  55.1352870  37.3374493  37.9694609  53.6435910  37.1202530
  39.1266781  57.4575376  39.2691681  39.3033410  58.3793341  39.0812665
  39.9223615  57.1433795  39.6986061  47.2134963  40.3464743  45.1439897
  46.8699232  41.2366385  45.0679007  47.5813925  40.1566401  44.2809482
  35.2820813  52.6698274  37.9628499  36.1196035  53.0795282  37.7462206
  35.4599081  51.7297716  37.9328693  47.1785245  50.3373355  33.6512332
  46.6631869  51.1077959  33.8900719  46.9062554  49.6638491  34.2745393
  44.7632357  45.1823055  38.7097570  43.9073953  44.7929906  38.5303209
  45.1759308  45.2615016  37.8497356  46.2931503  42.7169399  43.1089130
  45.7896299  42.6799534  42.2956935  46.5862110  43.6262141  43.1685787
  42.5374389  42.8008128  42.1155312  43.4027386  42.6050937  41.7561201
  42.6051898  42.5718480  43.0424668  46.9671549  48.2100447  35.4772113
  46.6621684  48.5246596  36.3282256  47.9201991  48.2881867  35.5199446
  45.4117980  54.3690670  37.1265067  44.8839342  53.6343430  36.8138304
  44.9105483  55.1465346  36.8805035  40.1436708  45.0310336  39.4871678
  40.7180460  44.8085518  38.7544871  40.7307691  45.0999031  40.2400280
  40.4706295  47.0614797  33.5067564  39.6343607  47.3989484  33.8276838
  40.3311065  46.9263777  32.5694701  42.4459376  41.9051585  38.2146748
  41.7923788  41.5900602  37.5903363  42.4039850  41.2827326  38.9406571
  43.5570581  52.1870880  30.1300040  42.6497642  51.9560134  30.3291189
  44.0541613  51.3908500  30.3174021  45.6797116  48.3933519  42.5394395
  44.7619678  48.6148466  42.3816084  46.0957260  48.4679829  41.6806103
  46.4632164  49.7924934  37.6697076  47.2103983  50.3046332  37.3604198
  46.7323753  49.4708987  38.5301469  44.7358814  52.2883475  34.6524030
  43.8270033  52.0042508  34.7496500  44.7653898  52.7082554  33.7927337
  48.9111001  46.8282051  39.6515865  48.1733758  46.3159437  39.9826108
  49.1637775  46.3882432  38.8399142  49.0122628  39.6058303  40.2457634
  49.3181505  38.7455666  39.9583549  49.7375233  40.1975923  40.0456628
  35.3046984  50.0088989  38.6339232  35.1071384  49.4158350  37.9090299
  34.7493648  49.7041199  39.3515171  43.2843708  49.9012096  40.7533825
  43.3392318  48.9485932  40.6776302  42.4734910  50.0571535  41.2375124
  44.4334902  53.8292219  31.9912109  43.9954332  53.1128078  31.5317746
  45.1745343  54.0568334  31.4297200  41.2236068  48.5189155  38.5124204
  40.4103934  48.8183326  38.9189396  41.7195062  48.1244844  39.2298686
  40.7150143  46.0907511  44.1285439  41.3549522  45.9496270  43.4308403
  39.8827673  45.8042024  43.7524041  41.4910447  55.3909941  40.2420432
  42.2851045  54.8960262  40.0403007  40.7802139  54.8627805  39.8788137
  37.7993210  49.5353023  36.3180184  36.8690798  49.4737479  36.5350146
  37.8950682  49.0128976  35.5216826  37.7178759  46.0607836  38.9058426
  37.9785577  46.9753169  38.7967586  38.5395932  45.5932279  39.0555039
  39.1903685  47.4745593  46.0757251  39.8626738  47.2662955  45.4269899
  38.3633471  47.2767679  45.6362483  48.5546130  52.6876600  31.5844166
  47.9375300  51.9623429  31.4877219  48.0862618  53.4485961  31.2411240
  40.3444675  46.9062025  30.7065470  39.4674142  46.7850826  30.3427717
  40.8202429  46.1148103  30.4544359  31.8646816  51.6939184  40.8006978
  32.5517855  51.3800915  40.2127993  31.7094944  52.5980549  40.5274229
  36.6681538  46.5829381  45.2292001  36.5839726  45.9755051  44.4942411
  35.8464244  47.0738399  45.2301498  46.8405252  45.0682945  40.5962196
  47.3373951  44.3152907  40.2763267  46.0692233  45.1047261  40.0305406
  43.4240220  47.2100328  40.3233881  43.0538008  46.6571368  41.0114787
  43.9199313  46.6058461  39.7708881  51.3107584  49.6671951  38.7050654
  51.7768036  50.4999943  38.6310957  51.7615084  49.2016933  39.4095912
  49.2824246  42.0352538  42.7441555  48.3687326  42.2656765  42.9123762
  49.7117348  42.1190982  43.5955588  31.4414792  49.7739778  43.0724445
  31.4798891  49.2403369  43.8661563  30.9355085  49.2474983  42.4535422
  38.8205554  44.6204318  46.5686987  38.8846880  45.4819149  46.1564385
  38.7572674  44.0078320  45.8359346  35.0723369  48.5003880  36.1478376
  35.3676810  47.5914558  36.0945430  34.1711405  48.4791619  35.8259378
  38.6017616  46.5759877  42.1305925  37.8804202  47.1895844  41.9913398
  39.3910872  47.1117641  42.0522571  36.8011211  46.1817978  36.2717701
  36.4723917  45.3015357  36.0892807  37.1550582  46.1265646  37.1594091
  39.9153034  46.4690947  36.6393179  40.2549107  46.9976869  35.9171787
  40.3625154  46.8071354  37.4151745  42.6096475  44.8527998  46.0896247
  42.2693295  44.0535811  46.4916927  41.9035481  45.1529709  45.5173080
  43.2612947  41.9377311  44.5423570  44.0839016  41.4637789  44.4202460
  43.5051010  42.7167794  45.0422256  41.9021181  44.9665569  34.8386472
  42.6229544  45.3446822  34.3350189  41.2786485  45.6854446  34.9421450
  46.0452304  45.6710718  35.7744804  46.2615918  46.5535356  35.4733632
  45.5646371  45.2796931  35.0450446  40.7851525  48.6296431  42.3515549
  40.6396106  48.9436734  43.2439830  40.3076729  49.2481332  41.7986447
  42.6447908  45.6198979  42.3996438  42.6309477  44.7240073  42.0628736
  43.3620336  45.6269643  43.0334724  44.4974039  46.0536319  44.4449566
  44.2391817  46.9753390  44.4433896  43.9659079  45.6566754  45.1350030
  35.2597188  51.1701776  45.2903210  34.7150656  51.9461584  45.4223484
  36.1376537  51.5172580  45.1322331  42.0484804  44.5013360  37.6684008
  42.1700715  43.5730006  37.8674896  41.7586847  44.5152045  36.7562324
  44.9175995  42.1868270  40.8050728  44.9397691  42.2507603  39.8502708
  45.3344054  41.3472779  40.9991234  36.4919823  58.1837101  40.2143761
  37.3177843  57.8840872  39.8342405  36.1413875  57.4144723  40.6633550
  34.6928428  56.1023427  41.1732695  33.8560336  55.6745601  40.9916696
  34.6652074  56.2955870  42.1103486  41.0214863  56.0867492  35.7599895
  41.1702984  56.7702957  35.1066568  41.8281307  56.0672582  36.2749351
  38.7767496  52.1132670  36.7660964  38.5313538  51.2095000  36.9641175
  38.9463411  52.1149820  35.8240442  38.0463144  47.8461027  34.2647126
  37.3532389  47.9205382  33.6087162  37.8014896  47.0821371  34.7868643
  46.7176800  39.4056629  41.6686617  46.9978554  38.7379818  42.2947043
  47.5027407  39.5985724  41.1561280  44.9057067  49.9176435  30.5727695
  45.8516172  49.7882643  30.6416113  44.5271312  49.1791097  31.0497124
  50.8778952  41.5832441  40.5354587  50.6803773  41.2747530  41.4197919
  51.4878657  42.3094080  40.6652517  43.0899984  47.8426412  30.5082581
  42.1831440  47.5459524  30.5845294  43.3675965  47.5456230  29.6416867
  34.0077925  49.1632775  40.9581627  33.6880709  48.3098083  40.6656001
  33.4611353  49.3781353  41.7139594  44.7062050  42.3863301  36.6626822
  43.8962778  42.0410386  37.0382068  45.3946467  42.0770845  37.2514433
  46.6352598  41.4641348  38.2851119  47.1883637  41.8836802  38.9441142
  46.8722685  40.5377096  38.3274075  41.8598769  44.7013347  30.6494560
  42.7217933  45.0268245  30.9090377  42.0449113  43.9144843  30.1367626
  33.8766185  52.7835687  42.9274749  33.1829656  52.3689639  42.4144703
  34.6239176  52.8256223  42.3308167  50.0131405  43.5741873  37.7929783
  49.4330075  44.2326677  37.4107835  49.7467338  42.7519218  37.3817200
  48.4634972  42.9746931  39.9951103  48.9634750  43.0863466  39.1865422
  49.1070580  42.6707984  40.6351912  35.7902927  52.7153940  40.8040763
  35.7673615  52.8141628  39.8522647  36.1003564  53.5619091  41.1257930
  48.7956284  45.7341964  36.8486131  47.9082139  46.0191614  36.6306326
  49.2110273  45.5735727  36.0013408  52.1470820  45.7588485  40.5640470
  52.9231210  46.2484937  40.8365087  51.4218954  46.1846539  41.0212340
  48.7697307  51.2496500  37.0636421  48.7132509  51.7065051  36.2244054
  49.3225650  50.4887184  36.8859264  52.5802113  47.0386232  37.8886541
  52.3239047  46.6382867  38.7194748  51.9554981  47.7530026  37.7636680
  42.8128212  41.9409390  33.9374269  42.8006882  42.8851230  34.0942540
  43.7051634  41.7579535  33.6433730  46.6280331  38.5352167  38.1920206
  45.8612727  37.9810653  38.3376888  47.0391036  38.6074035  39.0534357
  18.6265729  -0.7211907  25.7391510  18.0630594  -0.8121970  24.9707798
  18.5118124  -1.5412003  26.2194003  23.2498697  -1.4212532  35.7080825
  23.2387337  -1.8159734  34.8361328  23.4119336  -2.1546459  36.3014596
  16.1730161   0.7739285  28.5775731  16.9651453   0.4330109  28.1622030
  16.4126811   0.8834260  29.4977884  24.2065288   2.9459061  21.0505975
  23.5553268   3.5313141  20.6639989  25.0009651   3.4765256  21.1101012
  18.1320915   0.0348198  21.4493109  18.9051791  -0.5122815  21.3105985
  18.4846314   0.8992447  21.6607571  19.9705958   1.3624580  34.6560009
  19.6795824   2.2670211  34.5406675  20.6062942   1.4041108  35.3704078
  20.8962165  -1.2598571  31.2461368  21.4925737  -1.4842549  30.5318331
  20.9537136  -2.0013826  31.8486816  25.6840553   0.6349493  21.5874959
  25.0486386   0.7084119  22.2995864  25.3537960   1.2243091  20.9094039
  20.1883482  -1.9031030  21.2835934  20.0719740  -2.5786127  21.9517019
  20.2985742  -2.3898656  20.4668087  24.9295843   1.0485996  31.6509802
  24.6296566   1.9511034  31.5425610  24.5846902   0.7818179  32.5030955
  18.3808324  -2.5000208  27.6846507  17.4558821  -2.6323994  27.8924199
  18.6292737  -1.7205988  28.1816449  19.9116623   7.8130316  24.6180770
  19.8340652   8.7638141  24.6969251  19.3078266   7.4676188  25.2755696
  20.6580225  -2.2056365  36.8360104  21.3994909  -1.6671321  36.5594928
  19.9517210  -1.5790077  36.9931656  26.1335564  -0.0627225  35.4332265
  26.5418920  -0.5044814  34.6886898  25.4112826  -0.6374597  35.6866458
  26.4564379   0.4973966  29.1884554  25.8273241   0.6619680  28.4860622
  26.0690041   0.9115575  29.9595518  30.3353611   1.4328404  26.5428918
  29.6504649   1.8127305  25.9925951  30.4197460   2.0423730  27.2760866
  22.0092341   0.2348374  26.4534639  22.4730686   0.5136077  25.6639262
  21.7449139  -0.6668182  26.2707730  18.9016422  -0.2180145  29.3914403
  19.4717779   0.2107124  28.7531887  19.4924534  -0.4997560  30.0898588
  28.7050370   1.9560318  31.3146619  29.5267814   1.5540505  31.0329301
  28.7012773   1.8528552  32.2662735  22.4706974   1.5044361  33.4707329
  22.5351406   1.9664769  34.3065501  21.7617898   0.8741726  33.5989639
  22.1854991   3.1712469  23.3386310  22.0500666   4.0164005  23.7671158
  22.7264804   3.3731746  22.5752244  15.6384389   0.6887907  23.9114235
  16.1508909   1.4831157  24.0619800  16.2907102  -0.0085803  23.8447836
  17.4479274   3.8053663  25.9936988  17.6245902   4.7271628  25.8057972
  18.2436107   3.4912082  26.4231368  23.8123468   3.7936035  37.4686652
  23.3687322   3.0072414  37.1507556  24.4740681   3.9815186  36.8030543
  18.5710589   5.3231837  31.9947330  19.1218014   5.1948900  31.2224324
  17.7322065   5.6226726  31.6442223  25.9104706   4.0738835  35.4968053
  25.8923181   4.8947716  35.0048322  26.8324626   3.9492911  35.7218194
  22.3677760   1.5882965  36.3391562  22.9006097   0.8271253  36.1090869
  21.8391841   1.2956617  37.0815716  23.7330473   0.7168957  23.8510374
  23.2051834  -0.0178283  23.5383611  23.2317975   1.4943634  23.6050342
  28.7123319  -1.0882022  28.9677420  28.0546993  -0.3982761  29.0557548
  29.5163718  -0.6985590  29.3111406  21.8783073  -1.4650832  16.8545347
  20.9710135  -1.6961579  17.0536496  22.3754105  -2.2613213  17.0419328
  24.7851152   7.2446675  19.7742033  24.1112851   7.5478371  20.3826991
  25.1716974   8.0475755  19.4247490  23.0571306  -1.3638238  21.3769337
  22.1482526  -1.6479205  21.4741806  23.0866390  -0.9439159  20.5172643
  28.2890574   2.2468352  25.1460504  27.8352901   1.4059262  25.2025695
  27.6584541   2.8829750  25.4835284  26.7323513   4.0844849  26.0810322
  27.0246487   4.6449906  25.3622688  27.2422134   4.3773410  26.8363481
  22.7547394   0.1770506  18.7157415  22.3166824  -0.5393635  18.2563053
  23.4957835   0.4046621  18.1542507  21.6957138   4.8625200  27.1703776
  21.6533317   5.0886046  26.2412308  22.6119837   4.6288574  27.3189577
  30.8989889   0.5204230  29.7845005  31.3326395   0.4279519  30.6328059
  31.6121469   0.4961731  29.1465021  19.8122939   1.7388229  26.9665738
  20.6063538   1.2438549  26.7648313  19.1014631   1.2106092  26.6033444
  24.6317783   4.1206324  31.3178106  24.6854806   4.6897261  32.0855822
  23.7632565   4.2908209  30.9532143  31.7605438   0.5627931  32.3177891
  31.9541328   1.4673741  32.5637166  31.6606056   0.1035350  33.1516476
  26.8220547   0.7134673  37.8918771  26.6706053   0.4845225  36.9748855
  26.8125226   1.6705275  37.9050116  23.5905883  -1.7133414  32.8765038
  24.5197943  -1.5622254  32.7034005  23.1696913  -1.6249393  32.0213684
  22.3894215   2.3117251  30.6463575  22.2505301   1.9436035  31.5189513
  21.6008811   2.8264890  30.4747533  22.9842367   7.4126347  21.9889112
  23.1594123   6.9414390  22.8034735  22.2975155   8.0392113  22.2170373
  23.9399430   1.6898853  28.0352413  23.6049263   1.6499623  28.9310063
  23.4403376   1.0243569  27.5622823  26.8758622  -0.9645112  18.3089473
  26.2587792  -1.6898284  18.2122525  26.4075110  -0.2035752  17.9656547
  28.5312753   3.7453796  35.9695253  28.4725300   3.0613016  35.3025836
  28.9332272   4.4872786  35.5175879  17.5503452  10.5615710  28.7628972
  17.7900050  11.1934234  29.4407991  16.7072649  10.2103750  29.0494331
  28.5330161   1.7093380  34.2009233  27.6456939   1.3719302  34.3235632
  29.1028712   0.9776411  34.4377998  22.0631314   6.3694832  31.1670476
  21.9901486   7.1749804  31.6789781  21.6208707   6.5686798  30.3418497
  21.8521094   5.6066602  24.6773298  21.0688616   6.1488283  24.7711522
  22.5513839   6.1240582  25.0767539  24.5229998   6.2681666  33.3228635
  25.2357970   6.9029131  33.2504536  24.0320026   6.3645532  32.5068637
  26.2447525   0.1732919  24.8945926  25.3103803   0.2934381  24.7250631
  26.4224193  -0.7294614  24.6305936  19.5741911   4.0176110  34.1434206
  20.2751371   4.6512593  34.2963600  19.1037026   4.3590841  33.3829845
  27.6996307   2.3594060  22.4282113  27.9756151   2.2450654  23.3375987
  26.8300806   1.9611544  22.3894286  24.3350371   6.6080410  26.0714926
  24.5172766   5.7902066  26.5342679  25.1583357   6.8248103  25.6339816
  24.6692537   5.5348596  23.3329975  25.1980303   5.0241050  22.7200137
  24.9320756   5.2191126  24.1975508  15.1709629   3.5512465  31.0765308
  15.7563066   2.8056153  31.2093212  14.9734468   3.8616422  31.9601972
  18.0248284   6.5863712  26.0927751  17.3558660   7.0709840  25.6091791
  17.8861154   6.8332933  27.0071129  22.1653553   8.6207456  32.6910409
  22.7171861   8.7839077  33.4559494  22.5059747   9.2111894  32.0190434
  27.0164427   3.4468713  38.5459063  27.5604331   4.0598672  38.0514018
  26.4351272   4.0048292  39.0626076  25.3021940   6.5689431  29.6774091
  25.1773080   5.7679171  29.1685037  25.9601031   7.0635625  29.1888061
  27.3656849   4.3698451  31.3053641  26.4187184   4.2503803  31.2331968
  27.7139622   3.4820949  31.3879903  24.3703282   4.1651168  27.5057993
  24.2228244   3.2367875  27.6865563  25.1956776   4.1871258  27.0215069
  27.9737404   4.9879726  28.5922866  28.8983951   4.7822588  28.4547317
  27.8052707   4.7396128  29.5012208  27.7632720   5.5065394  23.9484958
  27.9369598   4.9411816  23.1958810  28.2561611   6.3066289  23.7664448
  28.7507893   4.8232158  21.0481856  29.4458797   5.4438851  21.2669171
  29.0931043   3.9727509  21.3234234  30.6499316   2.2731864  22.5769187
  31.1750640   2.6119136  21.8518507  30.5621668   1.3378879  22.3932321
  22.3119364   6.1865937  34.7059063  22.6206491   5.9415084  35.5781763
  23.1094846   6.3912576  34.2177934  22.3339976   8.3403847  26.9364440
  21.8944967   7.8480226  27.6297297  23.0848093   7.7976815  26.6956515
  14.8132315   4.5315388  26.9389068  15.6390335   4.2319160  26.5587711
  14.4626367   3.7623010  27.3878857  19.7813849   3.8841856  29.0086742
  19.1593858   3.2212561  28.7088969  20.4518715   3.9102988  28.3260389
  13.0140920   2.4501714  27.8978002  12.1772829   2.0223889  27.7162003
  12.9864566   2.6434158  28.8348793  30.3393222   2.9064767  37.8820385
  29.5488765   2.8888906  37.3424884  30.1026576   3.4453061  38.6369421
  19.3427355   2.4345779  22.4845202  19.4915476   3.1181244  21.8311875
  20.1493799   2.4150869  22.9994658  31.9609294   2.1754175  35.4395135
  31.6694102   2.5384156  36.2758596  31.3481425   1.4621184  35.2608467
  17.0979988  -1.5389043  23.4906271  16.8526030  -2.4426713  23.6886481
  17.2675903  -1.5371892  22.5485749  22.8422761   4.9293910  19.9556950
  22.2696728   5.5484097  19.5027421  23.4155555   5.4793272  20.4896871
  26.0620021   5.2131060  21.0865532  26.9950694   5.1476622  21.2898407
  25.9743234   6.0487327  20.6280064  28.6908037   4.5296930  18.0469479
  28.6121669   4.1956794  18.9405237  29.5117704   5.0218698  18.0460952
  23.1108252   0.3172469  38.7573659  24.0311262   0.4951068  38.9513706
  23.0757835  -0.6271486  38.6053358  16.1070325  -1.7726497  31.3996440
  16.3256334  -0.8409389  31.4184474  16.5196098  -2.1318522  32.1851244
  20.8429460  -2.7696152  39.6064251  20.3596542  -1.9695792  39.8128140
  20.9290399  -2.7588207  38.6531695  14.1115420  -0.9367772  27.5286070
  14.0886108  -0.8380085  26.5767953  14.4216056  -0.0902621  27.8503236
  16.7702797   1.1208383  31.6432685  17.7246051   1.0892325  31.5762616
  16.5715321   0.6599006  32.4582910  17.3602180  -0.3090501  34.2103482
  18.1795069   0.1853577  34.2338319  17.6338987  -1.2258533  34.1821050
  15.1253026   6.6628002  28.6602882  14.9907494   5.9028403  28.0940880
  14.7085088   7.3868902  28.1931671  26.2611989   1.8464926  17.6679458
  26.9647839   2.0514928  18.2837113  25.5374638   2.4141688  17.9328541
  18.2822152   7.5597319  28.8721325  18.1654536   8.5042752  28.7700015
  17.4614598   7.2570881  29.2607124  28.1698687   2.2847455  19.7177918
  29.0044291   1.8528653  19.5355393  28.0083030   2.1129469  20.6454812
  27.8244579  -1.2120432  21.0834257  27.7693383  -1.3776160  20.1422701
  27.1990634  -0.5044399  21.2396447  25.1390486   1.0928480  40.4087820
  26.0081646   1.2669132  40.0474455  24.6597237   1.9122897  40.2863549
  19.3076666   8.2125581  32.0877253  20.2103913   8.2449191  32.4043748
  19.0814036   7.2826032  32.1023589  21.0630268   6.9656568  28.7487332
  20.1125899   6.9658429  28.6351704  21.3662754   6.2189302  28.2323367
  36.7982962  12.8017106  29.8133094  37.4361372  12.6823853  29.1096435
  36.6803805  13.7497950  29.8721047  33.6072668  12.7544534  29.7494619
  33.2691180  12.6385599  28.8615154  34.4762436  12.3535699  29.7295625
  29.4659484  14.6080011  25.7391510  28.9024349  14.5169948  24.9707798
  29.3511879  13.7879915  26.2194003  34.0892451  13.9079386  35.7080825
  34.0781092  13.5132184  34.8361328  34.2513090  13.1745459  36.3014596
  27.0123916  16.1031202  28.5775731  27.8045208  15.7622027  28.1622030
  27.2520566  16.2126177  29.4977884  35.0459042  18.2750978  21.0505975
  34.3947022  18.8605059  20.6639989  35.8403405  18.8057173  21.1101012
  28.9714670  15.3640115  21.4493109  29.7445546  14.8169103  21.3105985
  29.3240068  16.2284365  21.6607571  30.8099712  16.6916498  34.6560009
  30.5189578  17.5962129  34.5406675  31.4456697  16.7333025  35.3704078
  31.7355919  14.0693346  31.2461368  32.3319491  13.8449369  30.5318331
  31.7930891  13.3278092  31.8486816  31.3080947  11.5232782  19.0811559
  31.5606468  11.0014303  18.3195022  30.3705506  11.3598927  19.1838243
  36.3524230  10.5268560  26.8886303  37.1387319  10.1087983  26.5376720
  36.6162935  11.4314652  27.0567951  36.5234308  15.9641410  21.5874959
  35.8880141  16.0376037  22.2995864  36.1931714  16.5535009  20.9094039
  41.7532657  10.4643793  27.7919281  42.4857829   9.8943010  28.0257111
  40.9972013  10.0765394  28.2325787  31.0277236  13.4260888  21.2835934
  30.9113494  12.7505791  21.9517019  31.1379496  12.9393261  20.4668087
  33.3708777  12.8871035  24.9882623  33.0066984  12.3601656  25.6995545
  34.2275893  12.4969504  24.8149109  39.2758078   4.1765367  32.2513890
  38.9441402   5.0460778  32.0275105  38.6803691   3.8601651  32.9307920
  33.0114264   7.9160934  19.9843972  33.1788666   8.7841171  20.3514443
  32.8211433   8.0788216  19.0605261  35.7689597  16.3777913  31.6509802
  35.4690320  17.2802952  31.5425610  35.4240657  16.1110096  32.5030955
  29.2202079  12.8291710  27.6846507  28.2952575  12.6967924  27.8924199
  29.4686492  13.6085929  28.1816449  39.1686741   8.8960453  29.3307240
  38.2603618   8.8275862  29.0366001  39.1174337   9.3732398  30.1589065
  32.9903485  10.3718592  20.9690639  32.8703110  10.8175643  21.8076119
  32.2956073  10.7203909  20.4104177  26.5810890  12.4724984  28.5190296
  26.7103271  12.7259463  29.4329708  25.9008341  13.0652692  28.1994951
  33.2427607  10.3150099  37.2742137  32.4660941  10.8744019  37.2645002
  33.8818170  10.8006882  37.7957007  41.0348387   7.0976892  31.1085114
  40.3922768   7.3909425  30.4624908  40.5303316   6.9829812  31.9138310
  38.6888551  10.8440065  21.7970973  39.6006407  11.0767452  21.6218670
  38.1798198  11.4277109  21.2346051  31.4973979  13.1235552  36.8360104
  32.2388663  13.6620596  36.5594928  30.7910965  13.7501841  36.9931656
  36.9729319  15.2664693  35.4332265  37.3812675  14.8247103  34.6886898
  36.2506580  14.6917320  35.6866458  33.3260389  10.2037300  32.8065822
  34.1721584  10.6276713  32.9500471  33.2659026   9.5470924  33.5004386
  37.2958133  15.8265883  29.1884554  36.6666996  15.9911598  28.4860622
  36.9083795  16.2407493  29.9595518  41.1747365  16.7620321  26.5428918
  40.4898403  17.1419223  25.9925951  41.2591215  17.3715648  27.2760866
  36.4759834   7.8641668  34.4646996  36.2320766   8.6183728  33.9281272
  36.7519765   8.2427016  35.2994243  38.4298297  14.4080280  33.1424262
  38.6415192  15.0512040  32.4658643  38.3828045  13.5742597  32.6746192
  36.0324526   7.0198101  30.0460834  35.1709005   7.3179355  30.3377571
  36.0586961   7.2368500  29.1141866  32.8486095  15.5640292  26.4534639
  33.3124441  15.8427995  25.6639262  32.5842893  14.6623736  26.2707730
  29.7410176  15.1111773  29.3914403  30.3111533  15.5399041  28.7531887
  30.3318288  14.8294358  30.0898588  31.7854981  11.6863444  23.2624205
  32.4879025  12.1384488  23.7298131  31.4535610  11.0447263  23.8904098
  30.2335343  10.2775201  37.6375414  29.6034003  10.9591481  37.8710811
  30.1271431  10.1658282  36.6928552  25.5280315   9.9446997  28.5641338
  24.7379369  10.2004525  28.0881449  26.0191563  10.7595334  28.6693379
  39.5444125  17.2852236  31.3146619  40.3661569  16.8832423  31.0329301
  39.5406528  17.1820470  32.2662735  27.4795061  10.3091576  25.5224815
  26.6826224  10.4210270  26.0408311  27.2520653  10.6478228  24.6565705
  33.3100728  16.8336279  33.4707329  33.3745161  17.2956686  34.3065501
  32.6011652  16.2033644  33.5989639  23.8118018  10.1977487  30.9956329
  24.0626057  11.0824497  31.2613905  24.3477567  10.0182089  30.2231421
  47.6350118  13.6290984  27.6631590  46.8813826  13.0598382  27.5075595
  47.7697659  13.5953649  28.6102225  33.0248746  18.5004387  23.3386310
  32.8894421  19.3455922  23.7671158  33.5658558  18.7023664  22.5752244
  29.5116086   4.5795966  40.0000665  29.1183031   4.0262165  40.6748309
  30.3282226   4.8906545  40.3907183  26.4778143  16.0179825  23.9114235
  26.9902664  16.8123075  24.0619800  27.1300856  15.3206115  23.8447836
  32.4284047   5.9953845  37.5920922  33.1693760   6.5960999  37.5125384
  32.6601969   5.2531483  37.0338964  27.5725385  11.1810213  35.8699151
  27.4578900  10.2795470  36.1706250  26.7169902  11.4273909  35.5183968
  34.6517222  19.1227953  37.4686652  34.2081077  18.3364332  37.1507556
  35.3134436  19.3107104  36.8030543  36.7498460  19.4030753  35.4968053
  36.7316936  20.2239634  35.0048322  37.6718380  19.2784828  35.7218194
  33.2071515  16.9174882  36.3391562  33.7399851  16.1563171  36.1090869
  32.6785596  16.6248534  37.0815716  36.3741210   2.0234948  31.8685203
  36.0305479   2.9136590  31.7924314  36.7420172   1.8336606  31.0054788
  24.4427060  14.3468479  24.6873805  25.2802282  14.7565487  24.4707513
  24.6205328  13.4067921  24.6573999  36.3391492  12.0143560  20.3757638
  35.8238116  12.7848164  20.6146026  36.0668801  11.3408696  20.9990700
  33.9238603   6.8593260  25.4342877  33.0680200   6.4700111  25.2548515
  34.3365555   6.9385221  24.5742662  35.4537750   4.3939604  29.8334436
  34.9502545   4.3569739  29.0202242  35.7468357   5.3032346  29.8931093
  31.6980636   4.4778333  28.8400618  32.5633633   4.2821142  28.4806508
  31.7658145   4.2488685  29.7669975  41.3125766  14.7675914  22.3110812
  40.5355209  14.4287074  21.8665974  41.9917247  14.7728537  21.6365777
  36.1277795   9.8870652  22.2017420  35.8227931  10.2016801  23.0527563
  37.0808238   9.9652071  22.2444753  34.5724227  16.0460875  23.8510374
  34.0445589  15.3113635  23.5383611  34.0711730  16.8235551  23.6050342
  39.5517073  14.2409895  28.9677420  38.8940748  14.9309157  29.0557548
  40.3557472  14.6306327  29.3111406  29.3042955   6.7080541  26.2116985
  29.8786707   6.4855723  25.4790178  29.8913937   6.7769236  26.9645586
  38.3622532  12.5954268  27.0181362  38.8754414  13.2284260  27.5203071
  39.0123756  11.9955464  26.6524722  29.6312542   8.7385002  20.2312870
  28.7949854   9.0759689  20.5522145  29.4917312   8.6033982  19.2940007
  31.6065623   3.5821790  24.9392054  30.9530035   3.2670807  24.3148669
  31.5646097   2.9597531  25.6651877  32.7176827  13.8641085  16.8545347
  31.8103889  13.6330339  17.0536496  33.2147859  13.0678704  17.0419328
  35.6244906  22.5738592  19.7742033  34.9506605  22.8770289  20.3826991
  36.0110728  23.3767673  19.4247490  34.8403363  10.0703724  29.2639702
  33.9225924  10.2918671  29.1061390  35.2563507  10.1450034  28.4051409
  35.6238411  11.4695139  24.3942382  36.3710230  11.9816537  24.0849504
  35.8930000  11.1479192  25.2546776  33.8965061  13.9653680  21.3769337
  32.9876280  13.6812713  21.4741806  33.9260145  14.3852759  20.5172643
  39.1284328  17.5760270  25.1460504  38.6746655  16.7351179  25.2025695
  38.4978295  18.2121668  25.4835284  38.0717248   8.5052256  26.3761172
  37.3340005   7.9929642  26.7071414  38.3244021   8.0652637  25.5644449
  37.5717268  19.4136766  26.0810322  37.8640242  19.9741823  25.3622688
  38.0815888  19.7065327  26.8363481  24.4653231  11.6859194  25.3584539
  24.2677631  11.0928555  24.6335605  23.9099895  11.3811404  26.0760478
  32.4449955  11.5782301  27.4779132  32.4998565  10.6256137  27.4021609
  31.6341157  11.7341740  27.9620430  33.5941149  15.5062424  18.7157415
  33.1560579  14.7898283  18.2563053  34.3351590  15.7338539  18.1542507
  30.3842315  10.1959360  25.2369511  29.5710180  10.4953531  25.6434703
  30.8801309   9.8015049  25.9543993  35.9816527  10.6601185  34.0684405
  36.3365914  10.8872658  34.9278871  36.6288658  10.9919562  33.4461660
  41.7114263  13.7819621  24.7733734  41.5732162  13.9721217  23.8454923
  41.3550482  14.5439004  25.2301785  29.8756390   7.7677716  30.8530746
  30.5155769   7.6266475  30.1553709  29.0433920   7.4812229  30.4769348
  41.7383643  15.8496148  29.7845005  42.1720150  15.7571437  30.6328059
  42.4515224  15.8253648  29.1465021  30.6516694  17.0680146  26.9665738
  31.4457292  16.5730466  26.7648313  29.9408386  16.5398009  26.6033444
  35.4711538  19.4498242  31.3178106  35.5248560  20.0189178  32.0855822
  34.6026319  19.6200127  30.9532143  26.9599457  11.2123228  23.0425491
  26.0297045  11.1507684  23.2595453  27.0556929  10.6899181  22.2462132
  26.8785006   7.7378041  25.6303733  27.1391823   8.6523374  25.5212893
  27.7002178   7.2702483  25.7800345  28.3509931   9.1515798  32.8002557
  29.0232985   8.9433160  32.1515206  27.5239718   8.9537884  32.3607789
  42.5999193  15.8919848  32.3177891  42.7935083  16.7965659  32.5637166
  42.4999811  15.4327267  33.1516476  34.2535503   5.7777739  34.8168218
  33.6063418   6.4767689  34.7232694  35.0236519   6.2113883  35.1844466
  37.6614301  16.0426591  37.8918771  37.5099808  15.8137143  36.9748855
  37.6518981  16.9997193  37.9050116  34.4299638  13.6158504  32.8765038
  35.3591698  13.7669664  32.7034005  34.0090668  13.7042525  32.0213684
  33.2287969  17.6409168  30.6463575  33.0899055  17.2727953  31.5189513
  32.4402566  18.1556808  30.4747533  34.7793185  17.0190771  28.0352413
  34.4443017  16.9791541  28.9310063  34.2797130  16.3535487  27.5622823
  28.7537429  12.4258401  33.5604994  28.6157227  11.6938640  34.1616533
  29.6642352  12.3367301  33.2789182  37.7152376  14.3646805  18.3089473
  37.0981547  13.6393634  18.2122525  37.2468865  15.1256166  17.9656547
  31.3819729  12.1378360  33.0488674  32.0919348  11.4971553  33.0075292
  31.3389037  12.3891255  33.9714855  39.3706508  19.0745714  35.9695253
  39.3119054  18.3904934  35.3025836  39.7726026  19.8164704  35.5175879
  30.0948663   9.1243578  34.8684313  29.5586020   8.6734317  35.5205910
  29.5065372   9.2589487  34.1254778  29.5050922   8.5832230  17.4310777
  28.6280389   8.4621030  17.0673024  29.9808675   7.7918308  17.1789666
  39.3723915  17.0385298  34.2009233  38.4850694  16.7011219  34.3235632
  39.9422466  16.3068329  34.4377998  21.0253062  13.3709389  27.5252284
  21.7124102  13.0571119  26.9373300  20.8701191  14.2750754  27.2519536
  25.8287784   8.2599586  31.9537308  25.7445973   7.6525256  31.2187718
  25.0070491   8.7508604  31.9546804  36.0011498   6.7453149  27.3207503
  36.4980198   5.9923112  27.0008573  35.2298480   6.7817466  26.7550712
  43.8541256  12.4493515  28.9625794  43.8431132  13.3318230  28.5919728
  42.9858635  12.0965066  28.7680332  35.3623752  21.5973584  33.3228635
  36.0751724  22.2321049  33.2504536  34.8713781  21.6937450  32.5068637
  37.0841279  15.5024837  24.8945926  36.1497558  15.6226299  24.7250631
  37.2617948  14.5997303  24.6305936  32.5846467   8.8870532  27.0479188
  32.2144255   8.3341573  27.7360093  33.0805560   8.2828666  26.4954188
  40.4713830  11.3442156  25.4295961  40.9374283  12.1770148  25.3556263
  40.9221331  10.8787138  26.1341219  38.5390062  17.6885977  22.4282113
  38.8149905  17.5742572  23.3375987  37.6694560  17.2903462  22.3894286
  38.4430493   3.7122743  29.4686862  37.5293573   3.9426970  29.6369069
  38.8723595   3.7961187  30.3200894  38.2136952  11.9012635  31.9686756
  37.5608402  12.1488542  31.3139209  38.5917332  11.0876773  31.6349233
  35.5086291  20.8640513  23.3329975  36.0374057  20.3532968  22.7200137
  35.7714511  20.5483043  24.1975508  34.2624525  12.6432446  38.4552793
  33.5865162  12.5426575  39.1255168  35.0852159  12.4871660  38.9188790
  20.6021038  11.4509983  29.7969751  20.6405138  10.9173573  30.5906869
  20.0961331  10.9245188  29.1780729  27.9811801   6.2974523  33.2932294
  28.0453127   7.1589354  32.8809691  27.9178921   5.6848525  32.5604652
  27.4564073   8.3697656  36.9405328  28.0836112   7.9874733  37.5542852
  26.5991992   8.1511858  37.3061020  37.8558182  18.7760631  38.5459063
  38.3998086  19.3890589  38.0514018  37.2745027  19.3340209  39.0626076
  24.2329616  10.1774085  22.8723683  24.5283057   9.2684763  22.8190736
  23.3317652  10.1561824  22.5504685  27.7623863   8.2530081  28.8551231
  27.0410449   8.8666049  28.7158705  28.5517119   8.7887846  28.7767877
  38.2050603  19.6990369  31.3053641  37.2580939  19.5795720  31.2331968
  38.5533376  18.8112867  31.3879903  30.5650177   5.5884508  35.1291883
  31.0884578   5.8346805  35.8918192  30.3462510   6.4204543  34.7095020
  25.9617458   7.8588183  22.9963008  25.6330164   6.9785561  22.8138114
  26.3156828   7.8035851  23.8839397  29.0759281   8.1461152  23.3638486
  29.4155353   8.6747074  22.6417094  29.5231401   8.4841558  24.1397052
  38.8131158  20.3171644  28.5922866  39.7377706  20.1114505  28.4547317
  38.6446462  20.0688045  29.5012208  31.7702722   6.5298203  32.8141554
  31.4299542   5.7306016  33.2162234  31.0641728   6.8299914  32.2418387
  32.4219193   3.6147516  31.2668877  33.2445263   3.1407994  31.1447767
  32.6657257   4.3937999  31.7667563  31.0627428   6.6435774  21.5631778
  31.7835790   7.0217027  21.0595495  30.4392732   7.3624651  21.6666756
  35.2058551   7.3480923  22.4990111  35.4222165   8.2305561  22.1978939
  34.7252618   6.9567136  21.7695753  29.9457772  10.3066636  29.0760855
  29.8002353  10.6206939  29.9685137  29.4682976  10.9251536  28.5231754
  31.8054155   7.2969184  29.1241745  31.7915724   6.4010277  28.7874043
  32.5226583   7.3039848  29.7580031  33.6580286   7.7306524  31.1694872
  33.3998064   8.6523595  31.1679203  33.1265326   7.3336959  31.8595336
  38.6026475  20.8357311  23.9484958  38.7763352  20.2703734  23.1958810
  39.0955366  21.6358206  23.7664448  24.4203434  12.8471981  32.0148516
  23.8756902  13.6231789  32.1468791  25.2982784  13.1942785  31.8567638
  31.2091051   6.1783564  24.3929315  31.3306962   5.2500211  24.5920202
  30.9193093   6.1922250  23.4807630  34.0782241   3.8638475  27.5296035
  34.1003938   3.9277808  26.5748014  34.4950300   3.0242984  27.7236541
  44.4565866  13.5993734  25.5675257  44.8997012  12.8501060  25.1694381
  43.5792376  13.5903871  25.1848989  39.5901647  20.1524076  21.0481856
  40.2852552  20.7730769  21.2669171  39.9324797  19.3019427  21.3234234
  25.2069456  11.9741877  34.9078673  24.4651192  12.1224512  35.4943304
  24.8862201  12.2350142  34.0445423  41.4893070  17.6023781  22.5769187
  42.0144394  17.9411054  21.8518507  41.4015423  16.6670797  22.3932321
  33.1513119  21.5157855  34.7059063  33.4600245  21.2707002  35.5781763
  33.9488601  21.7204494  34.2177934  23.8534675  17.7793632  27.8978002
  23.0166583  17.3515806  27.7162003  23.8258320  17.9726075  28.8348793
  30.6932131   7.6915562  38.6019248  30.7420286   8.5677685  38.2197017
  31.2354645   7.1492955  38.0290891  41.1786976  18.2356685  37.8820385
  40.3882520  18.2180824  37.3424884  40.9420331  18.7744979  38.6369421
  41.2984851  15.0849151  35.1953113  41.3482856  14.9199159  36.1368636
  41.1898775  14.2176410  34.8050994  30.1821110  17.7637697  22.4845202
  30.3309230  18.4473161  21.8311875  30.9887553  17.7442787  22.9994658
  38.5888614  11.0680079  36.5112420  39.4898476  10.9286544  36.2196418
  38.6636588  11.2334534  37.4510597  32.9231419   8.4446934  35.3565606
  32.0534728   8.7380500  35.0848195  33.1590899   9.0287379  36.0772870
  42.8003048  17.5046093  35.4395135  42.5087856  17.8676073  36.2758596
  42.1875179  16.7913101  35.2608467  43.9998730  15.0698973  27.9597705
  44.8345622  15.5088777  28.1235265  44.1357859  14.5937626  27.1405951
  41.0490236  12.6278708  33.9075193  41.5244358  12.8206354  33.0994044
  40.1255802  12.6837893  33.6618576  27.9373743  13.7902875  23.4906271
  27.6919785  12.8865205  23.6886481  28.1069657  13.7920025  22.5485749
  35.6270453   4.6626551  32.8731027  36.1452397   5.3987578  32.5477515
  35.2725586   4.9690544  33.7077786  27.2069390   9.5231232  20.9892432
  26.5138635   9.5975587  20.3332468  26.9621142   8.7591576  21.5113949
  33.6816515  20.2585828  19.9556950  33.1090483  20.8776015  19.5027421
  34.2549309  20.8085189  20.4896871  39.7491905   9.5044468  32.1403498
  40.7009328   9.6042565  32.1615722  39.5795356   8.7122736  32.6501583
  37.7706285   6.5900051  32.3262899  37.1756217   6.8705064  31.6309388
  37.4855982   7.0793952  33.0979640  36.9013775  20.5422978  21.0865532
  37.8344448  20.4768539  21.2898407  36.8136988  21.3779245  20.6280064
  39.5301792  19.8588848  18.0469479  39.4515423  19.5248712  18.9405237
  40.3511459  20.3510616  18.0460952  42.2279983  12.7250587  31.2545798
  42.1956303  11.7866588  31.4405482  42.8380607  12.8034624  30.5211623
  34.0663314  11.5946640  17.2973002  35.0122419  11.4652848  17.3661420
  33.6877559  10.8561302  17.7742430  42.3774472   9.5161631  31.3004081
  41.8613520   8.7320087  31.1134010  43.2614420   9.1880347  31.4650601
  40.0385199   3.2602646  27.2599894  39.8410020   2.9517735  28.1443226
  40.6484904   3.9864285  27.3897824  48.0456533  13.7866594  30.3951835
  48.7759921  13.5251882  30.9559538  47.4363478  13.0495316  30.4353903
  46.1271830  11.9274457  30.9926286  45.4004994  11.7930422  30.3842778
  45.7119117  12.2351285  31.7983004  33.9502007  15.6464386  38.7573659
  34.8705016  15.8242985  38.9513706  33.9151590  14.7020432  38.6053358
  32.2506231   9.5196617  17.2327887  31.3437687   9.2229729  17.3090601
  32.5282212   9.2226435  16.3662173  23.1684172  10.8402980  27.6826934
  22.8486956   9.9868288  27.3901308  22.6217600  11.0551558  28.4384901
  26.9464079  13.5565421  31.3996440  27.1650089  14.4882529  31.4184474
  27.3589853  13.1973396  32.1851244  33.8668297   4.0633506  23.3872129
  33.0569025   3.7180591  23.7627375  34.5552714   3.7541050  23.9759740
  35.7958845   3.1411553  25.0096425  36.3489884   3.5607007  25.6686448
  36.0328932   2.2147301  25.0519381  31.8191944   9.1298627  40.7899189
  31.7188671  10.0792984  40.7211280  31.6013486   8.8016866  39.9175259
  31.0205016   6.3783552  17.3739866  31.8824180   6.7038450  17.6335684
  31.2055360   5.5915048  16.8612932  23.0372432  14.4605892  29.6520055
  22.3435903  14.0459844  29.1390010  23.7845423  14.5026428  29.0553474
  39.1737652   5.2512078  24.5175089  38.5936321   5.9096882  24.1353142
  38.9073585   4.4289423  24.1062507  37.6241219   4.6517136  26.7196410
  38.1240997   4.7633671  25.9110729  38.2676827   4.3478189  27.3597218
  31.6823214  12.5595766  39.6064251  31.1990296  13.3596126  39.8128140
  31.7684153  12.5703711  38.6531695  24.9509174  14.3924145  27.5286070
  24.9279862  14.4911833  26.5767953  25.2609811  15.2389296  27.8503236
  27.6096552  16.4500300  31.6432685  28.5639805  16.4184243  31.5762616
  27.4109076  15.9890924  32.4582910  28.1995934  15.0201416  34.2103482
  29.0188823  15.5145495  34.2338319  28.4732742  14.1033385  34.1821050
  37.9562530   7.4112169  23.5731438  37.0688385   7.6961819  23.3551632
  38.3716519   7.2505932  22.7258715  41.3077066   7.4358690  27.2885777
  42.0837457   7.9255142  27.5610394  40.5825201   7.8616744  27.7457646
  43.7449625   8.1486309  28.3459718  44.3394116   7.9082045  27.6353026
  43.8176209   7.4293440  28.9733254  37.1005744  17.1756843  17.6679458
  37.8041594  17.3806846  18.2837113  36.3768393  17.7433605  17.9328541
  37.9303554  12.9266705  23.7881728  37.8738755  13.3835256  22.9489360
  38.4831896  12.1657389  23.6104571  41.7408360   8.7156437  24.6131847
  41.4845294   8.3153072  25.4440055  41.1161228   9.4300230  24.4881987
  46.0520698  11.4552510  27.1203139  45.4920256  11.5245699  27.8934701
  45.4464201  11.2793494  26.4002635  39.0092441  17.6139373  19.7177918
  39.8438045  17.1820571  19.5355393  38.8476784  17.4421386  20.6454812
  38.6638333  14.1171486  21.0834257  38.6087137  13.9515757  20.1422701
  38.0384389  14.8247519  21.2396447  23.4530848   9.3539550  34.9095679
  24.0989712   8.8438504  35.3982904  23.2447999  10.0908232  35.4839104
  35.9784241  16.4220398  40.4087820  36.8475400  16.5961050  40.0474455
  35.4990992  17.2414815  40.2863549  31.9734459   3.6179595  20.6619575
  31.9613129   4.5621435  20.8187846  32.8657881   3.4349740  20.3679037
  27.7928339   6.5007167  39.0070693  28.6559801   6.1443972  39.2174018
  27.2193750   6.1621062  39.6946098  47.6376716  28.1309024  29.8133094
  48.2755126  28.0115771  29.1096435  47.5197559  29.0789868  29.8721047
  44.4466423  28.0836452  29.7494619  44.1084934  27.9677517  28.8615154
  45.3156191  27.6827617  29.7295625  40.3053238  29.9371928  25.7391510
  39.7418103  29.8461865  24.9707798  40.1905633  29.1171833  26.2194003
  44.9286206  29.2371304  35.7080825  44.9174846  28.8424102  34.8361328
  45.0906845  28.5037376  36.3014596  45.8852797  33.6042896  21.0505975
  45.2340777  34.1896976  20.6639989  46.6797160  34.1349091  21.1101012
  39.8108424  30.6932033  21.4493109  40.5839300  30.1461020  21.3105985
  40.1633823  31.5576282  21.6607571  41.6493467  32.0208415  34.6560009
  41.3583333  32.9254046  34.5406675  42.2850451  32.0624943  35.3704078
  42.5749674  29.3985264  31.2461368  43.1713246  29.1741286  30.5318331
  42.6324645  28.6570009  31.8486816  42.1474702  26.8524699  19.0811559
  42.4000223  26.3306221  18.3195022  41.2099261  26.6890845  19.1838243
  47.1917985  25.8560478  26.8886303  47.9781074  25.4379901  26.5376720
  47.4556689  26.7606570  27.0567951  47.3628062  31.2933328  21.5874959
  46.7273895  31.3667954  22.2995864  47.0325468  31.8826927  20.9094039
  52.5926412  25.7935711  27.7919281  53.3251584  25.2234928  28.0257111
  51.8365768  25.4057311  28.2325787  41.8670991  28.7552805  21.2835934
  41.7507249  28.0797709  21.9517019  41.9773251  28.2685179  20.4668087
  44.2102532  28.2162952  24.9882623  43.8460739  27.6893573  25.6995545
  45.0669647  27.8261421  24.8149109  50.1151832  19.5057285  32.2513890
  49.7835157  20.3752696  32.0275105  49.5197446  19.1893569  32.9307920
  43.8508019  23.2452852  19.9843972  44.0182421  24.1133088  20.3514443
  43.6605188  23.4080134  19.0605261  46.6083352  31.7069831  31.6509802
  46.3084075  32.6094870  31.5425610  46.2634411  31.4402014  32.5030955
  40.0595833  28.1583628  27.6846507  39.1346330  28.0259842  27.8924199
  40.3080246  28.9377847  28.1816449  50.0080496  24.2252371  29.3307240
  49.0997373  24.1567780  29.0366001  49.9568091  24.7024316  30.1589065
  43.8297239  25.7010509  20.9690639  43.7096865  26.1467560  21.8076119
  43.1349828  26.0495827  20.4104177  37.4204644  27.8016901  28.5190296
  37.5497025  28.0551380  29.4329708  36.7402096  28.3944609  28.1994951
  41.5904132  38.4714151  24.6180770  41.5128161  39.4221976  24.6969251
  40.9865775  38.1260024  25.2755696  44.0821361  25.6442017  37.2742137
  43.3054695  26.2035937  37.2645002  44.7211924  26.1298800  37.7957007
  51.8742142  22.4268809  31.1085114  51.2316522  22.7201343  30.4624908
  51.3697070  22.3121730  31.9138310  49.5282306  26.1731983  21.7970973
  50.4400162  26.4059369  21.6218670  49.0191953  26.7569027  21.2346051
  42.3367734  28.4527470  36.8360104  43.0782418  28.9912514  36.5594928
  41.6304719  29.0793759  36.9931656  47.8123073  30.5956610  35.4332265
  48.2206429  30.1539021  34.6886898  47.0900335  30.0209238  35.6866458
  44.1654143  25.5329217  32.8065822  45.0115338  25.9568631  32.9500471
  44.1052781  24.8762842  33.5004386  48.1351888  31.1557801  29.1884554
  47.5060750  31.3203515  28.4860622  47.7477550  31.5699411  29.9595518
  52.0141120  32.0912239  26.5428918  51.3292158  32.4711140  25.9925951
  52.0984969  32.7007566  27.2760866  47.3153589  23.1933586  34.4646996
  47.0714521  23.9475646  33.9281272  47.5913519  23.5718933  35.2994243
  49.2692051  29.7372198  33.1424262  49.4808947  30.3803958  32.4658643
  49.2221800  28.9034515  32.6746192  46.8718280  22.3490019  30.0460834
  46.0102759  22.6471272  30.3377571  46.8980715  22.5660418  29.1141866
  43.6879850  30.8932209  26.4534639  44.1518195  31.1719912  25.6639262
  43.4236648  29.9915654  26.2707730  40.5803931  30.4403691  29.3914403
  41.1505288  30.8690959  28.7531887  41.1712043  30.1586275  30.0898588
  42.6248736  27.0155362  23.2624205  43.3272779  27.4676405  23.7298131
  42.2929364  26.3739180  23.8904098  41.0729097  25.6067118  37.6375414
  40.4427758  26.2883399  37.8710811  40.9665185  25.4950200  36.6928552
  50.3837879  32.6144153  31.3146619  51.2055323  32.2124341  31.0329301
  50.3800282  32.5112388  32.2662735  38.3188815  25.6383493  25.5224815
  37.5219978  25.7502188  26.0408311  38.0914407  25.9770146  24.6565705
  44.1494483  32.1628197  33.4707329  44.2138915  32.6248604  34.3065501
  43.4405407  31.5325562  33.5989639  43.8642500  33.8296304  23.3386310
  43.7288175  34.6747840  23.7671158  44.4052313  34.0315582  22.5752244
  40.3509840  19.9087884  40.0000665  39.9576786  19.3554083  40.6748309
  41.1675980  20.2198463  40.3907183  43.2677801  21.3245763  37.5920922
  44.0087514  21.9252916  37.5125384  43.4995724  20.5823401  37.0338964
  38.4119139  26.5102130  35.8699151  38.2972654  25.6087388  36.1706250
  37.5563657  26.7565827  35.5183968  45.4910977  34.4519871  37.4686652
  45.0474831  33.6656249  37.1507556  46.1528190  34.6399021  36.8030543
  40.2498098  35.9815672  31.9947330  40.8005523  35.8532736  31.2224324
  39.4109574  36.2810561  31.6442223  47.5892215  34.7322671  35.4968053
  47.5710690  35.5531552  35.0048322  48.5112135  34.6076746  35.7218194
  44.0465269  32.2466800  36.3391562  44.5793606  31.4855088  36.1090869
  43.5179350  31.9540452  37.0815716  47.2134964  17.3526866  31.8685203
  46.8699233  18.2428508  31.7924314  47.5813927  17.1628524  31.0054788
  47.1785247  27.3435477  20.3757638  46.6631870  28.1140082  20.6146026
  46.9062555  26.6700613  20.9990700  44.7632358  22.1885178  25.4342877
  43.9073954  21.7992028  25.2548515  45.1759310  22.2677139  24.5742662
  46.2931504  19.7231521  29.8334436  45.7896300  19.6861656  29.0202242
  46.5862111  20.6324264  29.8931093  42.5374390  19.8070251  28.8400618
  43.4027387  19.6113060  28.4806508  42.6051899  19.5780603  29.7669975
  52.1519521  30.0967832  22.3110812  51.3748964  29.7578991  21.8665974
  52.8311002  30.1020455  21.6365777  46.9671550  25.2162569  22.2017420
  46.6621685  25.5308718  23.0527563  47.9201992  25.2943989  22.2444753
  45.4117982  31.3752793  23.8510374  44.8839343  30.6405552  23.5383611
  44.9105484  32.1527469  23.6050342  50.3910828  29.5701813  28.9677420
  49.7334502  30.2601074  29.0557548  51.1951227  29.9598245  29.3111406
  40.1436709  22.0372459  26.2116985  40.7180461  21.8147640  25.4790178
  40.7307692  22.1061153  26.9645586  49.2016287  27.9246186  27.0181362
  49.7148168  28.5576178  27.5203071  49.8517510  27.3247381  26.6524722
  40.4706296  24.0676920  20.2312870  39.6343609  24.4051606  20.5522145
  40.3311066  23.9325900  19.2940007  42.4459377  18.9113708  24.9392054
  41.7923789  18.5962725  24.3148669  42.4039851  18.2889448  25.6651877
  43.5570582  29.1933003  16.8545347  42.6497644  28.9622256  17.0536496
  44.0541614  28.3970622  17.0419328  46.4638661  37.9030510  19.7742033
  45.7900360  38.2062207  20.3826991  46.8504483  38.7059590  19.4247490
  45.6797117  25.3995641  29.2639702  44.7619679  25.6210588  29.1061390
  46.0957261  25.4741952  28.4051409  46.4632165  26.7987057  24.3942382
  47.2103984  27.3108454  24.0849504  46.7323755  26.4771110  25.2546776
  44.7358815  29.2945598  21.3769337  43.8270035  29.0104631  21.4741806
  44.7653899  29.7144676  20.5172643  49.9678083  32.9052187  25.1460504
  49.5140410  32.0643097  25.2025695  49.3372049  33.5413586  25.4835284
  48.9111002  23.8344173  26.3761172  48.1733759  23.3221559  26.7071414
  49.1637776  23.3944555  25.5644449  48.4111022  34.7428684  26.0810322
  48.7033996  35.3033741  25.3622688  48.9209643  35.0357245  26.8363481
  49.0122630  16.6120425  26.9702941  49.3181506  15.7517789  26.6828856
  49.7375234  17.2038045  26.7701935  43.2843709  26.9074218  27.4779132
  43.3392319  25.9548055  27.4021609  42.4734911  27.0633657  27.9620430
  44.4334903  30.8354341  18.7157415  43.9954333  30.1190200  18.2563053
  45.1745344  31.0630456  18.1542507  41.2236069  25.5251278  25.2369511
  40.4103935  25.8245449  25.6434703  41.7195064  25.1306967  25.9543993
  43.3744647  35.5209035  27.1703776  43.3320826  35.7469881  26.2412308
  44.2907346  35.2872410  27.3189577  46.8210281  25.9893103  34.0684405
  47.1759669  26.2164576  34.9278871  47.4682412  26.3211479  33.4461660
  52.5508018  29.1111538  24.7733734  52.4125917  29.3013134  23.8454923
  52.1944237  29.8730921  25.2301785  40.7150144  23.0969634  30.8530746
  41.3549523  22.9558393  30.1553709  39.8827675  22.8104147  30.4769348
  52.5777398  31.1788065  29.7845005  53.0113904  31.0863355  30.6328059
  53.2908978  31.1545566  29.1465021  41.4910448  32.3972064  26.9665738
  42.2851046  31.9022384  26.7648313  40.7802140  31.8689927  26.6033444
  46.3105292  34.7790160  31.3178106  46.3642315  35.3481096  32.0855822
  45.4420074  34.9492045  30.9532143  37.7993211  26.5415146  23.0425491
  36.8690800  26.4799601  23.2595453  37.8950683  26.0191099  22.2462132
  37.7178761  23.0669959  25.6303733  37.9785578  23.9815292  25.5212893
  38.5395933  22.5994401  25.7800345  39.1903686  24.4807716  32.8002557
  39.8626739  24.2725078  32.1515206  38.3633472  24.2829802  32.3607789
  53.4392947  31.2211766  32.3177891  53.6328837  32.1257577  32.5637166
  53.3393565  30.7619185  33.1516476  45.0929258  21.1069657  34.8168218
  44.4457173  21.8059606  34.7232694  45.8630273  21.5405801  35.1844466
  48.5008056  31.3718509  37.8918771  48.3493562  31.1429061  36.9748855
  48.4912735  32.3289110  37.9050116  45.2693392  28.9450422  32.8765038
  46.1985452  29.0961581  32.7034005  44.8484422  29.0334442  32.0213684
  44.0681724  32.9701086  30.6463575  43.9292810  32.6019870  31.5189513
  43.2796320  33.4848725  30.4747533  44.6629876  38.0710182  21.9889112
  44.8381632  37.5998226  22.8034735  43.9762664  38.6975949  22.2170373
  45.6186939  32.3482689  28.0352413  45.2836772  32.3083459  28.9310063
  45.1190885  31.6827405  27.5622823  39.5931183  27.7550319  33.5604994
  39.4550981  27.0230558  34.1616533  40.5036107  27.6659219  33.2789182
  48.5546131  29.6938723  18.3089473  47.9375301  28.9685551  18.2122525
  48.0862619  30.4548083  17.9656547  42.2213484  27.4670278  33.0488674
  42.9313102  26.8263470  33.0075292  42.1782792  27.7183173  33.9714855
  50.2100262  34.4037631  35.9695253  50.1512809  33.7196852  35.3025836
  50.6119781  35.1456621  35.5175879  40.9342418  24.4535496  34.8684313
  40.3979775  24.0026234  35.5205910  40.3459126  24.5881405  34.1254778
  39.2290961  41.2199545  28.7628972  39.4687559  41.8518069  29.4407991
  38.3860158  40.8687585  29.0494331  40.3444677  23.9124147  17.4310777
  39.4674143  23.7912948  17.0673024  40.8202430  23.1210226  17.1789666
  50.2117670  32.3677215  34.2009233  49.3244448  32.0303137  34.3235632
  50.7816221  31.6360247  34.4377998  43.7418823  37.0278668  31.1670476
  43.6688995  37.8333639  31.6789781  43.2996216  37.2270634  30.3418497
  43.5308603  36.2650438  24.6773298  42.7476125  36.8072118  24.7711522
  44.2301348  36.7824417  25.0767539  46.8405253  22.0745067  27.3207503
  47.3373952  21.3215029  27.0008573  46.0692234  22.1109384  26.7550712
  54.6935010  27.7785433  28.9625794  54.6824886  28.6610148  28.5919728
  53.8252390  27.4256984  28.7680332  46.2017507  36.9265502  33.3228635
  46.9145479  37.5612967  33.2504536  45.7107535  37.0229368  32.5068637
  47.9235034  30.8316754  24.8945926  46.9891312  30.9518217  24.7250631
  48.1011702  29.9289221  24.6305936  43.4240222  24.2162450  27.0479188
  43.0538009  23.6633491  27.7360093  43.9199314  23.6120584  26.4954188
  51.3107585  26.6734074  25.4295961  51.7768037  27.5062065  25.3556263
  51.7615085  26.2079055  26.1341219  41.2529420  34.6759945  34.1434206
  41.9538880  35.3096428  34.2963600  40.7824535  35.0174677  33.3829845
  49.3783816  33.0177895  22.4282113  49.6543660  32.9034490  23.3375987
  48.5088315  32.6195380  22.3894286  49.2824248  19.0414661  29.4686862
  48.3687327  19.2718888  29.6369069  49.7117349  19.1253105  30.3200894
  49.0530706  27.2304553  31.9686756  48.4002156  27.4780460  31.3139209
  49.4311086  26.4168691  31.6349233  46.0137880  37.2664246  26.0714926
  46.1960275  36.4485902  26.5342679  46.8370866  37.4831938  25.6339816
  46.3480046  36.1932431  23.3329975  46.8767812  35.6824886  22.7200137
  46.6108265  35.8774961  24.1975508  45.1018279  27.9724364  38.4552793
  44.4258916  27.8718493  39.1255168  45.9245913  27.8163577  38.9188790
  39.7035793  37.2447548  26.0927751  39.0346169  37.7293675  25.6091791
  39.5648663  37.4916768  27.0071129  43.8441062  39.2791291  32.6910409
  44.3959370  39.4422913  33.4559494  44.1847255  39.8695729  32.0190434
  38.8205555  21.6266441  33.2932294  38.8846882  22.4881272  32.8809691
  38.7572676  21.0140443  32.5604652  38.2957828  23.6989573  36.9405328
  38.9229867  23.3166651  37.5542852  37.4385747  23.4803775  37.3061020
  48.6951936  34.1052549  38.5459063  49.2391840  34.7182507  38.0514018
  48.1138781  34.6632127  39.0626076  35.0723371  25.5066003  22.8723683
  35.3676812  24.5976681  22.8190736  34.1711406  25.4853742  22.5504685
  46.9809449  37.2273267  29.6774091  46.8560589  36.4263007  29.1685037
  47.6388540  37.7219460  29.1888061  49.0444358  35.0282287  31.3053641
  48.0974693  34.9087638  31.2331968  49.3927131  34.1404785  31.3879903
  41.4043931  20.9176426  35.1291883  41.9278333  21.1638722  35.8918192
  41.1856264  21.7496460  34.7095020  36.8011212  23.1880100  22.9963008
  36.4723918  22.3077479  22.8138114  37.1550583  23.1327769  23.8839397
  46.0490791  34.8235003  27.5057993  45.9015753  33.8951710  27.6865563
  46.8744284  34.8455094  27.0215069  39.9153035  23.4753070  23.3638486
  40.2549108  24.0038991  22.6417094  40.3625156  23.8133476  24.1397052
  49.6524913  35.6463562  28.5922866  50.5771460  35.4406423  28.4547317
  49.4840216  35.3979963  29.5012208  42.6096476  21.8590121  32.8141554
  42.2693296  21.0597934  33.2162234  41.9035482  22.1591832  32.2418387
  43.2612948  18.9439433  31.2668877  44.0839017  18.4699911  31.1447767
  43.5051011  19.7229917  31.7667563  41.9021182  21.9727692  21.5631778
  42.6229545  22.3508944  21.0595495  41.2786487  22.6916568  21.6666756
  46.0452305  22.6772841  22.4990111  46.2615920  23.5597478  22.1978939
  45.5646372  22.2859054  21.7695753  40.7851527  25.6358554  29.0760855
  40.6396107  25.9498857  29.9685137  40.3076730  26.2543454  28.5231754
  42.6447910  22.6261102  29.1241745  42.6309478  21.7302195  28.7874043
  43.3620338  22.6331766  29.7580031  44.4974040  23.0598442  31.1694872
  44.2391818  23.9815513  31.1679203  43.9659081  22.6628877  31.8595336
  49.4420229  36.1649229  23.9484958  49.6157107  35.5995652  23.1958810
  49.9349120  36.9650124  23.7664448  35.2597189  28.1763898  32.0148516
  34.7150657  28.9523706  32.1468791  36.1376539  28.5234703  31.8567638
  42.0484806  21.5075482  24.3929315  42.1700717  20.5792128  24.5920202
  41.7586848  21.5214168  23.4807630  44.9175996  19.1930393  27.5296035
  44.9397693  19.2569726  26.5748014  45.3344055  18.3534901  27.7236541
  55.2959620  28.9285652  25.5675257  55.7390766  28.1792977  25.1694381
  54.4186131  28.9195788  25.1848989  50.4295402  35.4815994  21.0481856
  51.1246306  36.1022686  21.2669171  50.7718552  34.6311345  21.3234234
  36.0463211  27.3033794  34.9078673  35.3044947  27.4516430  35.4943304
  35.7255955  27.5642060  34.0445423  52.3286825  32.9315699  22.5769187
  52.8538149  33.2702972  21.8518507  52.2409177  31.9962714  22.3932321
  43.9906873  36.8449773  34.7059063  44.2994000  36.5998919  35.5781763
  44.7882355  37.0496411  34.2177934  44.0127485  38.9987682  26.9364440
  43.5732476  38.5064061  27.6297297  44.7635602  38.4560650  26.6956515
  41.4601358  34.5425691  29.0086742  40.8381367  33.8796396  28.7088969
  42.1306224  34.5686823  28.3260389  41.5325885  23.0207479  38.6019248
  41.5814041  23.8969602  38.2197017  42.0748399  22.4784873  38.0290891
  52.0180731  33.5648603  37.8820385  51.2276274  33.5472742  37.3424884
  51.7814085  34.1036896  38.6369421  52.1378606  30.4141069  35.1953113
  52.1876611  30.2491077  36.1368636  52.0292529  29.5468328  34.8050994
  41.0214864  33.0929615  22.4845202  41.1702985  33.7765079  21.8311875
  41.8281308  33.0734705  22.9994658  49.4282368  26.3971997  36.5112420
  50.3292231  26.2578462  36.2196418  49.5030343  26.5626452  37.4510597
  43.7625173  23.7738852  35.3565606  42.8928483  24.0672418  35.0848195
  43.9984654  24.3579297  36.0772870  53.6396803  32.8338011  35.4395135
  53.3481611  33.1967991  36.2758596  53.0268934  32.1205019  35.2608467
  54.8392485  30.3990890  27.9597705  55.6739376  30.8380694  28.1235265
  54.9751614  29.9229544  27.1405951  51.8883991  27.9570625  33.9075193
  52.3638112  28.1498272  33.0994044  50.9649556  28.0129811  33.6618576
  38.7767497  29.1194792  23.4906271  38.5313539  28.2157122  23.6886481
  38.9463412  29.1211943  22.5485749  46.4664207  19.9918469  32.8731027
  46.9846151  20.7279496  32.5477515  46.1119340  20.2982462  33.7077786
  38.0463145  24.8523150  20.9892432  37.3532390  24.9267505  20.3332468
  37.8014897  24.0883494  21.5113949  46.7176801  16.4118751  28.3931923
  46.9978555  15.7441940  29.0192350  47.5027408  16.6047847  27.8806587
  44.5210270  35.5877745  19.9556950  43.9484237  36.2067932  19.5027421
  45.0943064  36.1377107  20.4896871  50.5885660  24.8336385  32.1403498
  51.5403083  24.9334483  32.1615722  50.4189110  24.0414654  32.6501583
  48.6100039  21.9191969  32.3262899  48.0149971  22.1996981  31.6309388
  48.3249736  22.4085869  33.0979640  47.7407530  35.8714895  21.0865532
  48.6738203  35.8060457  21.2898407  47.6530743  36.7071162  20.6280064
  50.3695546  35.1880766  18.0469479  50.2909178  34.8540629  18.9405237
  51.1905213  35.6802534  18.0460952  53.0673738  28.0542505  31.2545798
  53.0350058  27.1158506  31.4405482  53.6774361  28.1326542  30.5211623
  44.9057068  26.9238558  17.2973002  45.8516173  26.7944766  17.3661420
  44.5271313  26.1853220  17.7742430  53.2168226  24.8453548  31.3004081
  52.7007275  24.0612005  31.1134010  54.1008175  24.5172265  31.4650601
  50.8778953  18.5894564  27.2599894  50.6803774  18.2809652  28.1443226
  51.4878659  19.3156203  27.3897824  44.7895761  30.9756304  38.7573659
  45.7098770  31.1534903  38.9513706  44.7545344  30.0312349  38.6053358
  43.0899986  24.8488534  17.2327887  42.1831441  24.5521647  17.3090601
  43.3675967  24.5518352  16.3662173  37.7857834  28.8857339  31.3996440
  38.0043843  29.8174447  31.4184474  38.1983607  28.5265313  32.1851244
  44.7062051  19.3925424  23.3872129  43.8962780  19.0472509  23.7627375
  45.3946468  19.0832968  23.9759740  46.6352600  18.4703471  25.0096425
  47.1883638  18.8898924  25.6686448  46.8722686  17.5439219  25.0519381
  42.6585699  24.4590545  40.7899189  42.5582426  25.4084901  40.7211280
  42.4407241  24.1308783  39.9175259  41.8598770  21.7075470  17.3739866
  42.7217934  22.0330368  17.6335684  42.0449114  20.9206965  16.8612932
  50.0131407  20.5803996  24.5175089  49.4330076  21.2388800  24.1353142
  49.7467339  19.7581341  24.1062507  48.4634973  19.9809054  26.7196410
  48.9634751  20.0925588  25.9110729  49.1070581  19.6770107  27.3597218
  42.5216969  27.8887683  39.6064251  42.0384051  28.6888043  39.8128140
  42.6077908  27.8995628  38.6531695  39.0389689  30.3493334  34.2103482
  39.8582578  30.8437413  34.2338319  39.3126496  29.4325302  34.1821050
  48.7956285  22.7404086  23.5731438  47.9082140  23.0253737  23.3551632
  49.2110274  22.5797850  22.7258715  52.1470821  22.7650607  27.2885777
  52.9231211  23.2547060  27.5610394  51.4218955  23.1908662  27.7457646
  54.5843380  23.4778227  28.3459718  55.1787870  23.2373963  27.6353026
  54.6569963  22.7585357  28.9733254  47.9399498  32.5048761  17.6679458
  48.6435348  32.7098764  18.2837113  47.2162147  33.0725523  17.9328541
  48.7697309  28.2558622  23.7881728  48.7132510  28.7127174  22.9489360
  49.3225651  27.4949307  23.6104571  52.5802114  24.0448354  24.6131847
  52.3239049  23.6444990  25.4440055  51.9554982  24.7592148  24.4881987
  39.9609661  38.2181155  28.8721325  39.8442045  39.1626587  28.7700015
  39.1402107  37.9154716  29.2607124  49.8486196  32.9431290  19.7177918
  50.6831800  32.5112489  19.5355393  49.6870539  32.7713304  20.6454812
  49.5032088  29.4463404  21.0834257  49.4480892  29.2807675  20.1422701
  48.8778143  30.1539437  21.2396447  34.2924603  24.6831468  34.9095679
  34.9383466  24.1730422  35.3982904  34.0841754  25.4200150  35.4839104
  46.8177995  31.7512315  40.4087820  47.6869155  31.9252968  40.0474455
  46.3384746  32.5706732  40.2863549  42.8128213  18.9471513  20.6619575
  42.8006883  19.8913353  20.8187846  43.7051635  18.7641658  20.3679037
  40.9864175  38.8709416  32.0877253  41.8891422  38.9033027  32.4043748
  40.7601545  37.9409867  32.1023589  42.7417777  37.6240403  28.7487332
  41.7913408  37.6242265  28.6351704  43.0450263  36.8773138  28.2323367
  46.6280333  15.5414289  24.9165512  45.8612729  14.9872776  25.0622195
  47.0391038  15.6136158  25.7779664  38.6322094  21.8299085  39.0070693
  39.4953555  21.4735890  39.2174018  38.0587504  21.4912980  39.6946098
  55.2860177  43.4128370  29.7494619  54.9478689  43.2969434  28.8615154
  56.1549945  43.0119535  29.7295625  51.1446993  45.2663846  25.7391510
  50.5811858  45.1753783  24.9707798  51.0299388  44.4463750  26.2194003
  55.7679960  44.5663221  35.7080825  55.7568601  44.1716020  34.8361328
  55.9300599  43.8329294  36.3014596  48.6911425  46.7615038  28.5775731
  49.4832717  46.4205862  28.1622030  48.9308075  46.8710013  29.4977884
  50.6502179  46.0223951  21.4493109  51.4233055  45.4752938  21.3105985
  51.0027577  46.8868200  21.6607571  52.4887221  47.3500333  34.6560009
  52.1977087  48.2545964  34.5406675  53.1244205  47.3916861  35.3704078
  53.4143428  44.7277182  31.2461368  54.0107000  44.5033204  30.5318331
  53.4718400  43.9861927  31.8486816  52.9868456  42.1816617  19.0811559
  53.2393977  41.6598138  18.3195022  52.0493015  42.0182762  19.1838243
  52.7064745  44.0844723  21.2835934  52.5901003  43.4089626  21.9517019
  52.8167005  43.5977097  20.4668087  55.0496286  43.5454870  24.9882623
  54.6854493  43.0185491  25.6995545  55.9063402  43.1553339  24.8149109
  54.6901773  38.5744770  19.9843972  54.8576175  39.4425006  20.3514443
  54.4998942  38.7372051  19.0605261  50.8989588  43.4875545  27.6846507
  49.9740084  43.3551760  27.8924199  51.1474001  44.2669765  28.1816449
  54.6690994  41.0302427  20.9690639  54.5490619  41.4759478  21.8076119
  53.9743582  41.3787745  20.4104177  48.2598399  43.1308819  28.5190296
  48.3890780  43.3843298  29.4329708  47.5795850  43.7236527  28.1994951
  54.9215116  40.9733934  37.2742137  54.1448450  41.5327854  37.2645002
  55.5605679  41.4590717  37.7957007  53.1761488  43.7819388  36.8360104
  53.9176172  44.3204432  36.5594928  52.4698474  44.4085676  36.9931656
  55.0047898  40.8621135  32.8065822  55.8509093  41.2860548  32.9500471
  54.9446535  40.2054759  33.5004386  54.5273604  46.2224127  26.4534639
  54.9911950  46.5011830  25.6639262  54.2630402  45.3207571  26.2707730
  51.4197685  45.7695608  29.3914403  51.9899042  46.1982877  28.7531887
  52.0105797  45.4878193  30.0898588  53.4642490  42.3447279  23.2624205
  54.1666534  42.7968323  23.7298131  53.1323119  41.7031098  23.8904098
  51.9122852  40.9359036  37.6375414  51.2821512  41.6175317  37.8710811
  51.8058940  40.8242117  36.6928552  47.2067824  40.6030832  28.5641338
  46.4166878  40.8588360  28.0881449  47.6979072  41.4179170  28.6693379
  49.1582570  40.9675411  25.5224815  48.3613733  41.0794105  26.0408311
  48.9308162  41.3062063  24.6565705  54.9888237  47.4920114  33.4707329
  55.0532670  47.9540522  34.3065501  54.2799161  46.8617479  33.5989639
  45.4905527  40.8561322  30.9956329  45.7413566  41.7408332  31.2613905
  46.0265076  40.6765924  30.2231421  51.1903595  35.2379802  40.0000665
  50.7970540  34.6846000  40.6748309  52.0069735  35.5490380  40.3907183
  48.1565652  46.6763660  23.9114235  48.6690173  47.4706910  24.0619800
  48.8088365  45.9789950  23.8447836  49.9660537  49.7929416  25.9936988
  50.1427165  50.7147381  25.8057972  50.7617371  49.4787835  26.4231368
  54.1071556  36.6537681  37.5920922  54.8481269  37.2544834  37.5125384
  54.3389478  35.9115319  37.0338964  49.2512894  41.8394048  35.8699151
  49.1366409  40.9379305  36.1706250  48.3957411  42.0857745  35.5183968
  51.0891852  51.3107590  31.9947330  51.6399278  51.1824653  31.2224324
  50.2503328  51.6102479  31.6442223  54.8859024  47.5758718  36.3391562
  55.4187360  46.8147006  36.1090869  54.3573105  47.2832370  37.0815716
  46.1214569  45.0052314  24.6873805  46.9589791  45.4149323  24.4707513
  46.2992837  44.0651756  24.6573999  55.6026112  37.5177096  25.4342877
  54.7467709  37.1283946  25.2548515  56.0153064  37.5969056  24.5742662
  53.3768145  35.1362169  28.8400618  54.2421142  34.9404977  28.4806508
  53.4445654  34.9072520  29.7669975  50.9830464  37.3664377  26.2116985
  51.5574216  37.1439558  25.4790178  51.5701446  37.4353071  26.9645586
  51.3100051  39.3968838  20.2312870  50.4737363  39.7343524  20.5522145
  51.1704821  39.2617817  19.2940007  53.2853132  34.2405625  24.9392054
  52.6317544  33.9254643  24.3148669  53.2433606  33.6181366  25.6651877
  54.3964336  44.5224921  16.8545347  53.4891398  44.2914174  17.0536496
  54.8935368  43.7262540  17.0419328  55.5752570  44.6237515  21.3769337
  54.6663789  44.3396548  21.4741806  55.6047654  45.0436594  20.5172643
  46.1440740  42.3443030  25.3584539  45.9465140  41.7512390  24.6335605
  45.5887404  42.0395240  26.0760478  54.1237464  42.2366136  27.4779132
  54.1786074  41.2839972  27.4021609  53.3128666  42.3925575  27.9620430
  55.2728658  46.1646259  18.7157415  54.8348088  45.4482118  18.2563053
  56.0139099  46.3922374  18.1542507  52.0629824  40.8543196  25.2369511
  51.2497689  41.1537366  25.6434703  52.5588818  40.4598885  25.9543993
  51.5543899  38.4261551  30.8530746  52.1943278  38.2850310  30.1553709
  50.7221429  38.1396065  30.4769348  52.3304202  47.7263982  26.9665738
  53.1244801  47.2314302  26.7648313  51.6195895  47.1981845  26.6033444
  48.6386966  41.8707063  23.0425491  47.7084554  41.8091519  23.2595453
  48.7344438  41.3483016  22.2462132  48.5572515  38.3961876  25.6303733
  48.8179332  39.3107210  25.5212893  49.3789687  37.9286319  25.7800345
  50.0297440  39.8099633  32.8002557  50.7020494  39.6016996  32.1515206
  49.2027227  39.6121719  32.3607789  54.9075478  48.2993004  30.6463575
  54.7686564  47.9311788  31.5189513  54.1190075  48.8140643  30.4747533
  50.4324938  43.0842236  33.5604994  50.2944736  42.3522475  34.1616533
  51.3429861  42.9951137  33.2789182  53.0607238  42.7962196  33.0488674
  53.7706857  42.1555388  33.0075292  53.0176546  43.0475091  33.9714855
  51.7736172  39.7827414  34.8684313  51.2373529  39.3318152  35.5205910
  51.1852881  39.9173322  34.1254778  51.1838431  39.2416065  17.4310777
  50.3067898  39.1204866  17.0673024  51.6596184  38.4502143  17.1789666
  42.7040571  44.0293225  27.5252284  43.3911611  43.7154955  26.9373300
  42.5488700  44.9334589  27.2519536  47.5075293  38.9183421  31.9537308
  47.4233482  38.3109091  31.2187718  46.6858000  39.4092440  31.9546804
  54.2633976  39.5454368  27.0479188  53.8931764  38.9925408  27.7360093
  54.7593069  38.9412501  26.4954188  47.6890893  49.5388218  31.0765308
  48.2744330  48.7931906  31.2093212  47.4915731  49.8492175  31.9601972
  42.2808547  42.1093818  29.7969751  42.3192647  41.5757409  30.5906869
  41.7748840  41.5829024  29.1780729  49.6599310  36.9558359  33.2932294
  49.7240636  37.8173190  32.8809691  49.5966430  36.3432360  32.5604652
  49.1351582  39.0281491  36.9405328  49.7623621  38.6458568  37.5542852
  48.2779501  38.8095693  37.3061020  45.9117125  40.8357920  22.8723683
  46.2070566  39.9268599  22.8190736  45.0105161  40.8145660  22.5504685
  49.4411372  38.9113917  28.8551231  48.7197958  39.5249885  28.7158705
  50.2304628  39.4471682  28.7767877  52.2437686  36.2468343  35.1291883
  52.7672087  36.4930640  35.8918192  52.0250019  37.0788378  34.7095020
  47.6404967  38.5172018  22.9963008  47.3117673  37.6369397  22.8138114
  47.9944337  38.4619687  23.8839397  50.7546790  38.8044988  23.3638486
  51.0942862  39.3330909  22.6417094  51.2018910  39.1425394  24.1397052
  53.4490231  37.1882038  32.8141554  53.1087051  36.3889852  33.2162234
  52.7429237  37.4883749  32.2418387  54.1006702  34.2731351  31.2668877
  54.9232772  33.7991829  31.1447767  54.3444766  35.0521835  31.7667563
  52.7414937  37.3019609  21.5631778  53.4623299  37.6800862  21.0595495
  52.1180241  38.0208486  21.6666756  51.6245281  40.9650472  29.0760855
  51.4789862  41.2790775  29.9685137  51.1470485  41.5835372  28.5231754
  53.4841664  37.9553019  29.1241745  53.4703233  37.0594113  28.7874043
  54.2014092  37.9623683  29.7580031  55.3367795  38.3890360  31.1694872
  55.0785573  39.3107430  31.1679203  54.8052835  37.9920794  31.8595336
  46.0990943  43.5055816  32.0148516  45.5544411  44.2815624  32.1468791
  46.9770293  43.8526620  31.8567638  52.8878560  36.8367400  24.3929315
  53.0094471  35.9084046  24.5920202  52.5980602  36.8506086  23.4807630
  55.7569750  34.5222310  27.5296035  55.7791447  34.5861643  26.5748014
  56.1737809  33.6826819  27.7236541  46.8856965  42.6325712  34.9078673
  46.1438701  42.7808348  35.4943304  46.5649709  42.8933978  34.0445423
  47.3313579  50.5191141  26.9389068  48.1571599  50.2194913  26.5587711
  46.9807631  49.7498763  27.3878857  52.2995112  49.8717609  29.0086742
  51.6775121  49.2088314  28.7088969  52.9699979  49.8978741  28.3260389
  45.5322184  48.4377467  27.8978002  44.6954092  48.0099642  27.7162003
  45.5045829  48.6309911  28.8348793  52.3719640  38.3499397  38.6019248
  52.4207795  39.2261520  38.2197017  52.9142154  37.8076790  38.0290891
  51.8608619  48.4221532  22.4845202  52.0096739  49.1056997  21.8311875
  52.6675062  48.4026623  22.9994658  54.6018928  39.1030770  35.3565606
  53.7322237  39.3964336  35.0848195  54.8378408  39.6871215  36.0772870
  49.6161252  44.4486710  23.4906271  49.3707294  43.5449040  23.6886481
  49.7857166  44.4503861  22.5485749  48.8856899  40.1815068  20.9892432
  48.1926144  40.2559423  20.3332468  48.6408651  39.4175411  21.5113949
  53.9293740  40.1780452  17.2327887  53.0225196  39.8813565  17.3090601
  54.2069721  39.8810270  16.3662173  44.8471681  41.4986815  27.6826934
  44.5274465  40.6452124  27.3901308  44.3005109  41.7135394  28.4384901
  48.6251588  44.2149256  31.3996440  48.8437598  45.1466364  31.4184474
  49.0377362  43.8557231  32.1851244  55.5455806  34.7217342  23.3872129
  54.7356534  34.3764427  23.7627375  56.2340223  34.4124885  23.9759740
  53.4979453  39.7882462  40.7899189  53.3976180  40.7376819  40.7211280
  53.2800995  39.4600701  39.9175259  52.6992525  37.0367387  17.3739866
  53.5611689  37.3622286  17.6335684  52.8842869  36.2498883  16.8612932
  44.7159941  45.1189727  29.6520055  44.0223412  44.7043680  29.1390010
  45.4632932  45.1610263  29.0553474  53.3610723  43.2179601  39.6064251
  52.8777805  44.0179961  39.8128140  53.4471662  43.2287546  38.6531695
  46.6296683  45.0507981  27.5286070  46.6067371  45.1495668  26.5767953
  46.9397320  45.8973132  27.8503236  49.2884061  47.1084136  31.6432685
  50.2427314  47.0768078  31.5762616  49.0896584  46.6474759  32.4582910
  49.8783443  45.6785252  34.2103482  50.6976332  46.1729330  34.2338319
  50.1520251  44.7617220  34.1821050  47.6434290  52.6503755  28.6602882
  47.5088758  51.8904156  28.0940880  47.2266352  53.3744655  28.1931671
  45.1318357  40.0123386  34.9095679  45.7777221  39.5022340  35.3982904
  44.9235508  40.7492067  35.4839104  53.6521968  34.2763430  20.6619575
  53.6400638  35.2205270  20.8187846  54.5445390  34.0933576  20.3679037
  49.4715848  37.1591003  39.0070693  50.3347310  36.8027808  39.2174018
  48.8981259  36.8204898  39.6946098  30.7510378   0.1484356  11.3426077
  30.6734408   1.0992181  11.4214557  30.1472022  -0.1969771  12.0001003
  28.3897208   2.8969750  15.4874279  28.6293806   3.5288274  16.1653297
  27.5466404   2.5457790  15.7739638  28.8642040  -1.0782247  12.8173057
  28.1952415  -0.5936120  12.3337097  28.7254910  -0.8313027  13.7316436
  33.0047309   0.9561496  19.4155716  33.5565617   1.1193118  20.1804801
  33.3453502   1.5465934  18.7435740  25.9646782  -1.0017958  15.3848189
  25.8301250  -1.7617557  14.8186187  25.5478844  -0.2777058  14.9176978
  29.1215908  -0.1048640  15.5966632  29.0048292   0.8396792  15.4945322
  28.3008354  -0.4075079  15.9852431  30.1470422   0.5479621  18.8122560
  31.0497669   0.5803232  19.1289055  29.9207792  -0.3819928  18.8268896
  40.3053239   6.9434051  12.4636817  39.7418105   6.8523988  11.6953105
  40.1905635   6.1233955  12.9439309  44.9286207   6.2433426  22.4326131
  44.9174848   5.8486224  21.5606635  45.0906846   5.5099499  23.0259903
  37.8517671   8.4385242  15.3021037  38.6438963   8.0976067  14.8867337
  38.0914322   8.5480218  16.2223191  45.8852798  10.6105019   7.7751282
  45.2340778  11.1959099   7.3885295  46.6797161  11.1411213   7.8346319
  39.8108425   7.6994156   8.1738416  40.5839301   7.1523143   8.0351292
  40.1633824   8.5638405   8.3852877  41.6493468   9.0270538  21.3805315
  41.3583334   9.9316169  21.2651982  42.2850452   9.0687066  22.0949385
  42.5749675   6.4047386  17.9706675  43.1713247   6.1803409  17.2563638
  42.6324646   5.6632132  18.5732123  44.2102533   5.2225075  11.7127930
  43.8460740   4.6955696  12.4240852  45.0669649   4.8323544  11.5394416
  46.6083353   8.7131953  18.3755109  46.3084076   9.6156992  18.2670916
  46.2634413   8.4464137  19.2276262  40.0595834   5.1645750  14.4091813
  39.1346331   5.0321964  14.6169505  40.3080248   5.9439970  14.9061756
  37.4204646   4.8079024  15.2435602  37.5497027   5.0613503  16.1575014
  36.7402097   5.4006732  14.9240258  41.5904133  15.4776274  11.3426077
  41.5128162  16.4284099  11.4214557  40.9865776  15.1322146  12.0001003
  42.3367735   5.4589593  23.5605411  43.0782419   5.9974637  23.2840234
  41.6304720   6.0855881  23.7176962  47.8123075   7.6018733  22.1577572
  48.2206431   7.1601144  21.4132204  47.0900336   7.0271361  22.4111765
  48.1351889   8.1619924  15.9129861  47.5060752   8.3265638  15.2105929
  47.7477551   8.5761533  16.6840825  43.6879851   7.8994332  13.1779946
  44.1518197   8.1782035  12.3884569  43.4236649   6.9977776  12.9953037
  40.5803932   7.4465813  16.1159709  41.1505289   7.8753082  15.4777194
  41.1712044   7.1648398  16.8143895  36.3674071   2.2801037  15.2886645
  35.5773125   2.5358565  14.8126755  36.8585318   3.0949375  15.3938685
  50.3837881   9.6206276  18.0391926  51.2055324   9.2186463  17.7574607
  50.3800283   9.5174510  18.9908041  38.3188816   2.6445616  12.2470121
  37.5219980   2.7564310  12.7653617  38.0914409   2.9832268  11.3811012
  44.1494484   9.1690319  20.1952636  44.2138917   9.6310727  21.0310808
  43.4405408   8.5387684  20.3234946  34.6511774   2.5331527  17.7201636
  34.9019812   3.4178537  17.9859212  35.1871322   2.3536129  16.9476727
  43.8642502  10.8358427  10.0631616  43.7288176  11.6809963  10.4916464
  44.4052314  11.0377704   9.2997550  37.3171899   8.3533865  10.6359542
  37.8296420   9.1477115  10.7865106  37.9694612   7.6560155  10.5693143
  39.1266784  11.4699621  12.7182295  39.3033412  12.3917586  12.5303279
  39.9223617  11.1558040  13.1476674  38.4119140   3.5164253  22.5944458
  38.2972655   2.6149510  22.8951557  37.5563658   3.7627950  22.2429274
  45.4910978  11.4581993  24.1931959  45.0474832  10.6718372  23.8752863
  46.1528192  11.6461144  23.5275849  40.2498099  12.9877795  18.7192637
  40.8005524  12.8594858  17.9469631  39.4109575  13.2872684  18.3687530
  47.5892216  11.7384793  22.2213360  47.5710691  12.5593674  21.7293629
  48.5112136  11.6138868  22.4463501  44.0465270   9.2528923  23.0636868
  44.5793607   8.4917211  22.8336176  43.5179351   8.9602575  23.8061023
  35.2820816   6.6822519  11.4119112  36.1196038   7.0919527  11.1952820
  35.4599084   5.7421961  11.3819306  45.4117983   8.3814915  10.5755680
  44.8839345   7.6467675  10.2628918  44.9105486   9.1589592  10.3295648
  50.3910829   6.5763936  15.6922726  49.7334503   7.2663197  15.7802855
  51.1951228   6.9660368  16.0356713  46.4638662  14.9092633   6.4987339
  45.7900361  15.2124329   7.1072297  46.8504484  15.7121713   6.1492796
  49.9678084   9.9114310  11.8705811  49.5140411   9.0705220  11.9271001
  49.3372051  10.5475708  12.2080591  48.4111023  11.7490807  12.8055629
  48.7033998  12.3095864  12.0867995  48.9209644  12.0419368  13.5608788
  35.3046987   4.0213234  12.0829845  35.1071387   3.4282595  11.3580912
  34.7493651   3.7165445  12.8005784  43.3744648  12.5271158  13.8949082
  43.3320827  12.7532004  12.9657614  44.2907347  12.2934532  14.0434883
  52.5777399   8.1850188  16.5090312  53.0113905   8.0925477  17.3573366
  53.2908980   8.1607689  15.8710328  41.4910449   9.4034187  13.6911045
  42.2851048   8.9084507  13.4893620  40.7802142   8.8752050  13.3278750
  46.3105294  11.7852282  18.0423413  46.3642316  12.3543218  18.8101128
  45.4420075  11.9554167  17.6777450  37.7993213   3.5477268   9.7670798
  36.8690801   3.4861724   9.9840760  37.8950685   3.0253221   8.9707439
  53.4392948   8.2273889  19.0423197  53.6328838   9.1319699  19.2882472
  53.3393567   7.7681308  19.8761782  48.5008057   8.3780631  24.6164078
  48.3493563   8.1491183  23.6994162  48.4912737   9.3351233  24.6295423
  45.2693393   5.9512544  19.6010344  46.1985453   6.1023704  19.4279312
  44.8484423   6.0396565  18.7458991  44.0681725   9.9763209  17.3708882
  43.9292811   9.6081993  18.2434820  43.2796321  10.4910848  17.1992840
  44.6629877  15.0772305   8.7134419  44.8381633  14.6060348   9.5280041
  43.9762665  15.7038071   8.9415679  45.6186940   9.3544811  14.7597720
  45.2836773   9.3145581  15.6555370  45.1190886   8.6889527  14.2868130
  39.5931184   4.7612441  20.2850301  39.4550982   4.0292680  20.8861840
  40.5036108   4.6721341  20.0034489  50.2100264  11.4099754  22.6940560
  50.1512810  10.7258974  22.0271143  50.6119782  12.1518744  22.2421186
  39.2290962  18.2261668  15.4874279  39.4687561  18.8580192  16.1653297
  38.3860159  17.8749708  15.7739638  50.2117671   9.3739338  20.9254539
  49.3244450   9.0365260  21.0480938  50.7816222   8.6422369  21.1623305
  31.8646818   5.7063430  14.2497591  32.5517858   5.3925160  13.6618606
  31.7094947   6.6104794  13.9764842  43.7418824  14.0340790  17.8915783
  43.6688996  14.8395762  18.4035087  43.2996217  14.2332756  17.0663804
  43.5308604  13.2712560  11.4018604  42.7476126  13.8134240  11.4956829
  44.2301349  13.7886540  11.8012845  46.2017508  13.9327624  20.0473941
  46.9145480  14.5675089  19.9749843  45.7107537  14.0291490  19.2313943
  41.2529421  11.6822068  20.8679512  41.9538881  12.3158551  21.0208906
  40.7824536  12.0236799  20.1075151  46.0137881  14.2726368  12.7960233
  46.1960276  13.4548024  13.2587985  46.8370867  14.4894061  12.3585123
  46.3480047  13.1994554  10.0575281  46.8767813  12.6887008   9.4445443
  46.6108266  12.8837084  10.9220814  36.8497139  11.2158423  17.8010615
  37.4350576  10.4702111  17.9338519  36.6521978  11.5262380  18.6847279
  39.7035795  14.2509670  12.8173057  39.0346170  14.7355798  12.3337097
  39.5648664  14.4978891  13.7316436  31.4414794   3.7864023  16.5215058
  31.4798894   3.2527614  17.3152176  30.9355087   3.2599229  15.9026035
  43.8441063  16.2853414  19.4155716  44.3959371  16.4485035  20.1804801
  44.1847257  16.8757852  18.7435740  48.6951938  11.1114671  25.2704370
  49.2391842  11.7244630  24.7759325  48.1138782  11.6694250  25.7871383
  35.0723372   2.5128125   9.5968989  35.3676813   1.6038804   9.5436043
  34.1711408   2.4915865   9.2749992  46.9809451  14.2335389  16.4019398
  46.8560590  13.4325129  15.8930343  47.6388542  14.7281583  15.9133368
  49.0444359  12.0344409  18.0298948  48.0974694  11.9149761  17.9577275
  49.3927132  11.1466907  18.1125209  46.0490792  11.8297126  14.2303300
  45.9015755  10.9013833  14.4110870  46.8744286  11.8517216  13.7460375
  49.6524914  12.6525684  15.3168173  50.5771462  12.4468546  15.1792624
  49.4840217  12.4042085  16.2257514  49.4420230  13.1711352  10.6730264
  49.6157108  12.6057774   9.9204117  49.9349122  13.9712247  10.4909754
  35.2597190   5.1826021  18.7393823  34.7150658   5.9585829  18.8714097
  36.1376540   5.5296825  18.5812945  36.0463212   4.3095917  21.6323980
  35.3044948   4.4578552  22.2188610  35.7255956   4.5704183  20.7690729
  43.9906875  13.8511895  21.4304370  44.2994001  13.6061042  22.3027070
  44.7882357  14.0558534  20.9423240  44.0127487  16.0049805  13.6609747
  43.5732477  15.5126184  14.3542603  44.7635604  15.4622773  13.4201822
  36.4919826  12.1961346  13.6634375  37.3177846  11.8965118  13.2833018
  36.1413878  11.4268968  14.1124163  41.4601359  11.5487814  15.7332048
  40.8381368  10.8858519  15.4334276  42.1306226  11.5748946  15.0505696
  34.6928431  10.1147672  14.6223308  33.8560339   9.6869847  14.4407309
  34.6652076  10.3080116  15.5594099  52.0180732  10.5710725  24.6065691
  51.2276276  10.5534864  24.0670191  51.7814087  11.1099019  25.3614728
  41.0214866  10.0991737   9.2090509  41.1702986  10.7827202   8.5557181
  41.8281309  10.0796827   9.7239964  53.6396804   9.8400133  22.1640441
  53.3481612  10.2030114  23.0003902  53.0268935   9.1267141  21.9853773
  38.7767499   6.1256915  10.2151578  38.5313541   5.2219245  10.4131788
  38.9463413   6.1274065   9.2731056  44.5210271  12.5939868   6.6802256
  43.9484238  13.2130055   6.2272728  45.0943065  13.1439230   7.2142178
  44.7895762   7.9818427  25.4818966  45.7098772   8.1597026  25.6759012
  44.7545345   7.0374472  25.3298665  34.0077927   3.1757020  14.4072240
  33.6880712   2.3222329  14.1146614  33.4611355   3.3905599  15.1630208
  37.7857835   5.8919461  18.1241747  38.0043845   6.8236569  18.1429781
  38.1983609   5.5327436  18.9096551  33.8766187   6.7959932  16.3765362
  33.1829659   6.3813885  15.8635316  34.6239178   6.8380468  15.7798781
  42.5216970   4.8949806  26.3309557  42.0384052   5.6950166  26.5373446
  42.6077909   4.9057751  25.3777001  35.7902930   6.7278186  14.2531377
  35.7673618   6.8265873  13.3013260  36.1003566   7.5743336  14.5748543
  38.4490308   8.7854341  18.3677991  39.4033561   8.7538283  18.3007923
  38.2502831   8.3244964  19.1828217  39.0389690   7.3555457  20.9348789
  39.8582579   7.8499535  20.9583626  39.3126498   6.4387425  20.9066356
  36.8040536  14.3273960  15.3848189  36.6695004  13.5674361  14.8186187
  36.3872599  15.0514860  14.9176978  39.9609662  15.2243277  15.5966632
  39.8442046  16.1688710  15.4945322  39.1402109  14.9216839  15.9852431
  34.2924604   1.6893591  21.6340986  34.9383468   1.1792545  22.1228211
  34.0841755   2.4262272  22.2084411  46.8177996   8.7574438  27.1333126
  47.6869156   8.9315090  26.7719761  46.3384748   9.5768855  27.0108856
  40.9864176  15.8771539  18.8122560  41.8891423  15.9095149  19.1289055
  40.7601547  14.9471990  18.8268896  42.7417778  14.6302526  15.4732639
  41.7913410  14.6304387  15.3597011  43.0450265  13.8835260  14.9568673
  55.2860178  20.4190492  16.4739926  54.9478690  20.3031557  15.5860461
  56.1549946  20.0181657  16.4540932  51.1446994  22.2725969  12.4636817
  50.5811859  22.1815905  11.6953105  51.0299389  21.4525873  12.9439309
  55.7679961  21.5725344  22.4326131  55.7568602  21.1778142  21.5606635
  55.9300601  20.8391416  23.0259903  48.6911426  23.7677160  15.3021037
  49.4832718  23.4267985  14.8867337  48.9308076  23.8772135  16.2223191
  50.6502180  23.0286073   8.1738416  51.4233056  22.4815060   8.0351292
  51.0027579  23.8930323   8.3852877  52.4887222  24.3562456  21.3805315
  52.1977088  25.2608086  21.2651982  53.1244207  24.3978983  22.0949385
  53.4143429  21.7339304  17.9706675  54.0107001  21.5095327  17.2563638
  53.4718401  20.9924050  18.5732123  55.0496287  20.5516993  11.7127930
  54.6854495  20.0247614  12.4240852  55.9063403  20.1615462  11.5394416
  50.8989589  20.4937668  14.4091813  49.9740085  20.3613882  14.6169505
  51.1474002  21.2731887  14.9061756  48.2598400  20.1370942  15.2435602
  48.3890781  20.3905420  16.1575014  47.5795851  20.7298650  14.9240258
  52.4297887  30.8068192  11.3426077  52.3521917  31.7576017  11.4214557
  51.8259531  30.4614064  12.0001003  54.9215117  17.9796057  23.9987444
  54.1448451  18.5389977  23.9890308  55.5605680  18.4652840  24.5202314
  53.1761489  20.7881510  23.5605411  53.9176174  21.3266554  23.2840234
  52.4698475  21.4147799  23.7176962  55.0047899  17.8683258  19.5311129
  55.8509094  18.2922671  19.6745778  54.9446537  17.2116882  20.2249692
  54.5273606  23.2286249  13.1779946  54.9911951  23.5073952  12.3884569
  54.2630404  22.3269694  12.9953037  51.4197687  22.7757731  16.1159709
  51.9899044  23.2044999  15.4777194  52.0105798  22.4940316  16.8143895
  53.4642492  19.3509402   9.9869511  54.1666535  19.8030446  10.4543438
  53.1323120  18.7093221  10.6149404  51.9122853  17.9421158  24.3620721
  51.2821514  18.6237439  24.5956117  51.8058941  17.8304240  23.4173859
  47.2067826  17.6092955  15.2886645  46.4166880  17.8650483  14.8126755
  47.6979073  18.4241292  15.3938685  49.1582571  17.9737534  12.2470121
  48.3613734  18.0856228  12.7653617  48.9308163  18.3124186  11.3811012
  54.9888239  24.4982237  20.1952636  55.0532671  24.9602644  21.0310808
  54.2799162  23.8679602  20.3234946  45.4905529  17.8623445  17.7201636
  45.7413567  18.7470455  17.9859212  46.0265077  17.6828046  16.9476727
  54.7036256  26.1650344  10.0631616  54.5681931  27.0101880  10.4916464
  55.2446069  26.3669622   9.2997550  51.1903596  12.2441924  26.7245972
  50.7970541  11.6908123  27.3993616  52.0069736  12.5552503  27.1152489
  48.1565654  23.6825783  10.6359542  48.6690174  24.4769033  10.7865106
  48.8088366  22.9852073  10.5693143  49.9660538  26.7991539  12.7182295
  50.1427167  27.7209503  12.5303279  50.7617372  26.4849958  13.1476674
  54.1071557  13.6599803  24.3166228  54.8481270  14.2606957  24.2370691
  54.3389480  12.9177441  23.7584271  49.2512895  18.8456171  22.5944458
  49.1366410  17.9441428  22.8951557  48.3957413  19.0919867  22.2429274
  51.0891854  28.3169713  18.7192637  51.6399279  28.1886776  17.9469631
  50.2503330  28.6164602  18.3687530  54.8859025  24.5820840  23.0636868
  55.4187362  23.8209129  22.8336176  54.3573106  24.2894492  23.8061023
  46.1214570  22.0114437  11.4119112  46.9589792  22.4211445  11.1952820
  46.2992838  21.0713879  11.3819306  53.3768146  12.1424291  15.5645925
  54.2421143  11.9467100  15.2051814  53.4445655  11.9134643  16.4915282
  50.9830465  14.3726499  12.9362292  51.5574217  14.1501681  12.2035485
  51.5701448  14.4415194  13.6890893  46.1440741  19.3505152  12.0829845
  45.9465141  18.7574513  11.3580912  45.5887405  19.0457362  12.8005784
  54.1237465  19.2428259  14.2024439  54.1786075  18.2902095  14.1266915
  53.3128667  19.3987698  14.6865737  52.0629825  17.8605318  11.9614817
  51.2497691  18.1599489  12.3680010  52.5588819  17.4661007  12.6789300
  54.2138403  27.8563075  13.8949082  54.1714582  28.0823922  12.9657614
  55.1301102  27.6226450  14.0434883  51.5543900  15.4323674  17.5776052
  52.1943279  15.2912433  16.8799016  50.7221430  15.1458187  17.2014654
  52.3304204  24.7326104  13.6911045  53.1244802  24.2376424  13.4893620
  51.6195896  24.2043967  13.3278750  48.6386967  18.8769186   9.7670798
  47.7084555  18.8153642   9.9840760  48.7344439  18.3545139   8.9707439
  48.5572516  15.4023999  12.3549039  48.8179334  16.3169332  12.2458200
  49.3789689  14.9348441  12.5045652  50.0297442  16.8161756  19.5247864
  50.7020495  16.6079118  18.8760513  49.2027228  16.6183842  19.0853096
  54.9075480  25.3055126  17.3708882  54.7686565  24.9373911  18.2434820
  54.1190076  25.8202766  17.1992840  55.5023632  30.4064223   8.7134419
  55.6775387  29.9352266   9.5280041  54.8156420  31.0329989   8.9415679
  50.4324939  20.0904359  20.2850301  50.2944737  19.3584598  20.8861840
  51.3429862  20.0013259  20.0034489  53.0607240  19.8024318  19.7733981
  53.7706858  19.1617511  19.7320599  53.0176548  20.0537213  20.6960161
  51.7736173  16.7889536  21.5929620  51.2373531  16.3380275  22.2451216
  51.1852882  16.9235445  20.8500084  50.0684717  33.5553586  15.4874279
  50.3081315  34.1872110  16.1653297  49.2253913  33.2041626  15.7739638
  42.7040573  21.0355347  14.2497591  43.3911612  20.7217077  13.6618606
  42.5488701  21.9396712  13.9764842  47.5075295  15.9245544  18.6782615
  47.4233483  15.3171213  17.9433024  46.6858001  16.4154562  18.6792111
  54.5812579  29.3632708  17.8915783  54.5082750  30.1687679  18.4035087
  54.1389972  29.5624674  17.0663804  54.3702358  28.6004478  11.4018604
  53.5869880  29.1426158  11.4956829  55.0695104  29.1178458  11.8012845
  54.2633977  16.5516490  13.7724494  53.8931765  15.9987531  14.4605400
  54.7593070  15.9474624  13.2199494  52.0923176  27.0113985  20.8679512
  52.7932635  27.6450468  21.0208906  51.6218291  27.3528717  20.1075151
  47.6890894  26.5450340  17.8010615  48.2744331  25.7994028  17.9338519
  47.4915732  26.8554297  18.6847279  50.5429549  29.5801588  12.8173057
  49.8739924  30.0647716  12.3337097  50.4042419  29.8270808  13.7316436
  42.2808549  19.1155941  16.5215058  42.3192648  18.5819531  17.3152176
  41.7748842  18.5891146  15.9026035  54.6834818  31.6145331  19.4155716
  55.2353126  31.7776953  20.1804801  55.0241011  32.2049769  18.7435740
  49.6599311  13.9620481  20.0177600  49.7240637  14.8235312  19.6054998
  49.5966431  13.3494483  19.2849959  49.1351584  16.0343614  23.6650635
  49.7623622  15.6520691  24.2788159  48.2779502  15.8157816  24.0306327
  45.9117126  17.8420043   9.5968989  46.2070567  16.9330721   9.5436043
  45.0105162  17.8207782   9.2749992  49.4411373  15.9176039  15.5796538
  48.7197959  16.5312007  15.4404011  50.2304629  16.4533804  15.5013184
  52.2437687  13.2530466  21.8537190  52.7672089  13.4992762  22.6163499
  52.0250020  14.0850501  21.4340327  47.6404968  15.5234141   9.7208315
  47.3117674  14.6431519   9.5383420  47.9944339  15.4681809  10.6084704
  50.7546791  15.8107110  10.0883792  51.0942864  16.3393032   9.3662401
  51.2018912  16.1487516  10.8642359  53.4490232  14.1944161  19.5386860
  53.1087052  13.3951974  19.9407540  52.7429238  14.4945872  18.9663693
  54.1006704  11.2793473  17.9914183  54.9232773  10.8053952  17.8693074
  54.3444767  12.0583957  18.4912870  51.6245282  17.9712594  15.8006162
  51.4789863  18.2852897  16.6930443  51.1470486  18.5897494  15.2477061
  53.4841665  14.9615142  15.8487051  53.4703234  14.0656235  15.5119349
  54.2014093  14.9685806  16.4825338  55.3367796  15.3952482  17.8940179
  55.0785574  16.3169553  17.8924509  54.8052836  14.9982917  18.5840643
  46.0990945  20.5117938  18.7393823  45.5544413  21.2877746  18.8714097
  46.9770294  20.8588743  18.5812945  46.8856966  19.6387835  21.6323980
  46.1438702  19.7870470  22.2188610  46.5649711  19.8996100  20.7690729
  54.8300629  29.1803813  21.4304370  55.1387756  28.9352960  22.3027070
  55.6276111  29.3850451  20.9423240  54.8521241  31.3341723  13.6609747
  54.4126231  30.8418101  14.3542603  55.6029358  30.7914690  13.4201822
  47.3313580  27.5253263  13.6634375  48.1571600  27.2257035  13.2833018
  46.9807632  26.7560886  14.1124163  52.2995113  26.8779732  15.7332048
  51.6775123  26.2150437  15.4334276  52.9699980  26.9040864  15.0505696
  45.5322185  25.4439590  14.6223308  44.6954093  25.0161764  14.4407309
  45.5045831  25.6372033  15.5594099  52.3719641  15.3561520  25.3264554
  52.4207796  16.2323643  24.9442324  52.9142155  14.8138913  24.7536197
  51.8608620  25.4283655   9.2090509  52.0096741  26.1119119   8.5557181
  52.6675064  25.4088745   9.7239964  54.6018929  16.1092892  22.0810913
  53.7322239  16.4026458  21.8093501  54.8378410  16.6933337  22.8018176
  49.6161253  21.4548833  10.2151578  49.3707295  20.5511163  10.4131788
  49.7857168  21.4565983   9.2731056  48.8856901  17.1877190   7.7137739
  48.1926146  17.2621545   7.0577775  48.6408653  16.4237534   8.2359256
  55.3604026  27.9231785   6.6802256  54.7877993  28.5421973   6.2272728
  55.9336819  28.4731147   7.2142178  44.8471682  18.5048938  14.4072240
  44.5274466  17.6514246  14.1146614  44.3005110  18.7197516  15.1630208
  48.6251589  21.2211379  18.1241747  48.8437599  22.1528487  18.1429781
  49.0377363  20.8619353  18.9096551  53.4979455  16.7944585  27.5144496
  53.3976182  17.7438942  27.4456587  53.2800997  16.4662824  26.6420566
  44.7159942  22.1251850  16.3765362  44.0223413  21.7105802  15.8635316
  45.4632933  22.1672386  15.7798781  53.3610725  20.2241724  26.3309557
  52.8777806  21.0242084  26.5373446  53.4471664  20.2349669  25.3777001
  46.6296684  22.0570103  14.2531377  46.6067372  22.1557791  13.3013260
  46.9397321  22.9035254  14.5748543  49.2884062  24.1146258  18.3677991
  50.2427316  24.0830201  18.3007923  49.0896586  23.6536882  19.1828217
  49.8783444  22.6847374  20.9348789  50.6976333  23.1791453  20.9583626
  50.1520252  21.7679343  20.9066356  47.6434291  29.6565878  15.3848189
  47.5088759  28.8966279  14.8186187  47.2266353  30.3806778  14.9176978
  50.8003417  30.5535195  15.5966632  50.6835801  31.4980627  15.4945322
  49.9795863  30.2508756  15.9852431  45.1318359  17.0185508  21.6340986
  45.7777222  16.5084462  22.1228211  44.9235510  17.7554190  22.2084411
  51.8257931  31.2063457  18.8122560  52.7285178  31.2387067  19.1289055
  51.5995301  30.2763908  18.8268896  53.5811533  29.9594443  15.4732639
  52.6307164  29.9596305  15.3597011  53.8844019  29.2127178  14.9568673
  49.4715850  14.1653125  25.7316000  50.3347311  13.8089930  25.9419325
  48.8981260  13.8267020  26.4191404  53.5434327  36.3647265  14.2497591
  54.2305367  36.0508995  13.6618606  53.3882456  37.2688630  13.9764842
  53.1202303  34.4447858  16.5215058  53.1586403  33.9111449  17.3152176
  52.6142596  33.9183064  15.9026035  55.6865436  33.8340856  14.4072240
  55.3668221  32.9806164  14.1146614  55.1398864  34.0489434  15.1630208
   4.2775099  21.2936944  40.9386281   3.5238807  20.7244342  40.7830285
   4.4122640  21.2599608  41.8856915   0.6423711  22.7344932  41.2352395
   1.4770603  23.1734737  41.3989956   0.7782840  22.2583586  40.4160641
   4.6881514  21.4512554  43.6706525   5.4184902  21.1897842  44.2314228
   4.0788459  20.7141276  43.7108593   2.7696811  19.5920416  44.2680976
   2.0429974  19.4576381  43.6597468   2.3544098  19.8997245  45.0737694
   2.6945679  19.1198470  40.3957829   2.1345237  19.1891659  41.1689391
   2.0889182  18.9439454  39.6757325   4.2801697  35.7954983  43.0887785
   4.9180107  35.6761731  42.3851125   4.1622540  36.7435827  43.1475737
   1.0891403  35.7482412  43.0249309   0.7509915  35.6323476  42.1369844
   1.9581171  35.3473577  43.0050316   2.5277778  41.2688856  34.3260665
   1.8765757  41.8542936  33.9394679   3.3222141  41.7995051  34.3855703
   3.8342965  33.5206437  40.1640993   4.6206055  33.1025860  39.8131410
   4.0981670  34.4252530  40.3322641   4.0053043  38.9579288  34.8629650
   3.3698876  39.0313914  35.5750554   3.6750449  39.5472886  34.1848729
   9.2351393  33.4581671  41.0673971   9.9676565  32.8880887  41.3011801
   8.4790748  33.0703271  41.5080477   6.7576813  27.1703245  45.5268580
   6.4260138  28.0398656  45.3029795   6.1622426  26.8539529  46.2062610
   3.2508333  39.3715791  44.9264493   2.9509056  40.2740829  44.8180300
   2.9059392  39.1047974  45.7785646   6.6505476  31.8898331  42.6061930
   5.7422354  31.8213739  42.3120691   6.5993072  32.3670276  43.4343755
   8.5167123  30.0914769  44.3839804   7.8741503  30.3847302  43.7379598
   8.0122051  29.9767690  45.1893001   6.1707286  33.8377942  35.0725663
   7.0825142  34.0705329  34.8973361   5.6616933  34.4214987  34.5100742
   0.8079124  33.1975177  46.0820513   1.6540319  33.6214591  46.2255162
   0.7477762  32.5408801  46.7759076   4.7776869  38.8203761  42.4639245
   4.1485731  38.9849475  41.7615312   4.3902531  39.2345370  43.2350209
   8.6566101  39.7558199  39.8183608   7.9717139  40.1357100  39.2680642
   8.7409950  40.3653525  40.5515556   3.9578569  30.8579545  47.7401686
   3.7139501  31.6121606  47.2035962   4.2338500  31.2364893  48.5748933
   5.9117032  37.4018158  46.4178952   6.1233927  38.0449918  45.7413333
   5.8646780  36.5680474  45.9500882   3.5143261  30.0135978  43.3215524
   2.6527740  30.3117232  43.6132262   3.5405696  30.2306377  42.3896557
   7.0262860  40.2790113  44.5901309   7.8480304  39.8770300  44.3083991
   7.0225263  40.1758347  45.5417425  15.1168853  36.6228862  40.9386281
  14.3632562  36.0536260  40.7830285  15.2516394  36.5891526  41.8856915
   3.8559945  25.0172826  45.1439894   3.5124214  25.9074467  45.0679004
   4.2238907  24.8274483  44.2809479   3.8210228  35.0081437  33.6512329
   3.3056851  35.7786042  33.8900716   3.5487536  34.3346573  34.2745390
   2.9356485  27.3877481  43.1089127   2.4321281  27.3507616  42.2956932
   3.2287092  28.2970224  43.1685783   8.7944502  37.7613792  35.5865502
   8.0173944  37.4224951  35.1420664   9.4735983  37.7666415  34.9120467
   3.6096531  32.8808529  35.4772110   3.3046666  33.1954678  36.3282253
   4.5626973  32.9589949  35.5199443   2.0542963  39.0398752  37.1265064
   1.5264324  38.3051512  36.8138301   1.5530465  39.8173429  36.8805032
   7.0335809  37.2347773  42.2432110   6.3759483  37.9247034  42.3312239
   7.8376208  37.6244205  42.5866096   5.8441267  35.5892145  40.2936052
   6.3573149  36.2222137  40.7957762   6.4942491  34.9893341  39.9279412
   3.1063642  45.5676470  33.0496723   2.4325340  45.8708167  33.6581681
   3.4929464  46.3705550  32.7002180   2.3222098  33.0641601  42.5394392
   1.4044660  33.2856548  42.3816080   2.7382242  33.1387912  41.6806100
   3.1057146  34.4633017  37.6697073   3.8528965  34.9754414  37.3604195
   3.3748736  34.1417069  38.5301466   6.6103064  40.5698147  38.4215194
   6.1565391  39.7289057  38.4780385   5.9797030  41.2059545  38.7589975
   5.5535983  31.4990133  39.6515862   4.8158740  30.9867519  39.9826105
   5.8062757  31.0590515  38.8399139   5.0536003  42.4074644  39.3565013
   5.3458977  42.9679701  38.6377378   5.5634623  42.7003205  40.1118172
   5.6547610  24.2766385  40.2457631   5.9606487  23.4163748  39.9583546
   6.3800215  24.8684005  40.0456625   1.0759884  38.5000301  31.9912106
   0.6379314  37.7836160  31.5317743   1.8170325  38.7276416  31.4297197
   3.4635262  33.6539062  47.3439095   3.8184650  33.8810535  48.2033561
   4.1107393  33.9857439  46.7216350   9.1932999  36.7757498  38.0488424
   9.0550897  36.9659094  37.1209613   8.8369218  37.5376881  38.5056475
   9.2202378  38.8434025  43.0599696   9.6538885  38.7509314  43.9082750
   9.9333959  38.8191526  42.4219712  10.0817928  38.8857726  45.5932581
  10.2753818  39.7903536  45.8391856   9.9818546  38.4265145  46.4271166
   1.7354239  28.7715616  48.0922908   1.0882154  29.4705566  47.9987385
   2.5055254  29.2051760  48.4599157   1.9118373  36.6096381  46.1519728
   2.8410433  36.7607541  45.9788695   1.4909403  36.6980402  45.2968375
   1.3054857  45.7356142  35.2643802   1.4806612  45.2644185  36.0789425
   0.6187645  46.3621908  35.4925063   2.2611920  40.0128648  41.3107103
   1.9261753  39.9729418  42.2064753   1.7615866  39.3473364  40.8377514
   5.1971112  37.3584683  31.5844163   4.5800282  36.6331511  31.4877216
   4.7287600  38.1194043  31.2411237   6.8542650  40.0323175  47.4763923
   5.9669429  39.6949097  47.5990322   7.4241202  39.3006206  47.7132689
   3.4830234  29.7391027  40.5962193   3.9798933  28.9860989  40.2763264
   2.7117215  29.7755344  40.0305403  11.3359991  35.4431392  42.2380485
  11.3249867  36.3256108  41.8674418  10.4677370  35.0902943  42.0435022
   4.5660014  38.4962714  38.1700617   3.6316293  38.6164177  38.0005321
   4.7436683  37.5935181  37.9060626   7.9532566  34.3380033  38.7050651
   8.4193018  35.1708025  38.6310953   8.4040066  33.8725015  39.4095909
   6.0208797  40.6823855  35.7036803   6.2968641  40.5680449  36.6130677
   5.1513296  40.2841340  35.6648976   5.9249228  26.7060620  42.7441552
   5.0112308  26.9364847  42.9123759   6.3542330  26.7899064  43.5955585
   5.6955687  34.8950512  45.2441446   5.0427137  35.1426420  44.5893899
   6.0736067  34.0814651  44.9103923   2.6562861  44.9310206  39.3469616
   2.8385255  44.1131861  39.8097369   3.4795847  45.1477898  38.9094506
   2.9905026  43.8578391  36.6084665   3.5192793  43.3470845  35.9954827
   3.2533246  43.5420921  37.4730198   3.6234430  44.8919226  42.9528781
   3.4985570  44.0908966  42.4439727   4.2813521  45.3865420  42.4642751
   5.6869338  42.6928246  44.5808331   4.7399674  42.5733598  44.5086658
   6.0352112  41.8050745  44.6634593   2.6915772  42.4880963  40.7812684
   2.5440734  41.5597670  40.9620254   3.5169265  42.5101053  40.2969759
   6.2949894  43.3109521  41.8677556   7.2196441  43.1052383  41.7302008
   6.1265197  43.0625923  42.7766898   2.6877286  30.3418800  35.7744801
   2.9040900  31.2243438  35.4733629   2.2071353  29.9505014  35.0450443
   1.1399021  30.7244402  44.4449563   0.8816799  31.6461472  44.4433893
   0.6084061  30.3274836  45.1350027   6.0845210  43.8295189  37.2239648
   6.2582087  43.2641611  36.4713500   6.5774101  44.6296084  37.0419138
   1.5600977  26.8576352  40.8050725   1.5822673  26.9215685  39.8502705
   1.9769036  26.0180861  40.9991231  11.9384601  36.5931612  38.8429948
  12.3815747  35.8438937  38.4449071  11.0611111  36.5841748  38.4603680
   7.0720382  43.1461953  34.3236546   7.7671287  43.7668646  34.5423861
   7.4143532  42.2957304  34.5988924   8.9711805  40.5961659  35.8523877
   9.4963130  40.9348932  35.1273197   8.8834158  39.6608674  35.6687012
   8.7803587  38.0787029  48.4707803   8.8301591  37.9137036  49.4123326
   8.6717510  37.2114288  48.0805684   6.0707349  34.0617957  49.7867110
   6.9717212  33.9224422  49.4951108   6.1455323  34.2272412  50.7265288
  10.2821783  40.4983970  48.7149825   9.9906592  40.8613951  49.5513286
   9.6693915  39.7850979  48.5363157  11.4817466  38.0636850  41.2352395
  12.3164357  38.5026654  41.3989956  11.6176594  37.5875503  40.4160641
   8.5308972  35.6216585  47.1829883   9.0063093  35.8144231  46.3748734
   7.6074537  35.6775771  46.9373267   3.1089188  27.6564429  46.1485717
   3.6271132  28.3925455  45.8232205   2.7544321  27.9628422  46.9832476
   3.3601782  24.0764711  41.6686613   3.6403536  23.4087900  42.2947040
   4.1452389  24.2693807  41.1561277   1.1635251  43.2523705  33.2311640
   0.5909218  43.8713892  32.7782112   1.7368044  43.8023067  33.7651562
   7.2310641  32.4982345  45.4158189   8.1828064  32.5980443  45.4370413
   7.0614091  31.7060614  45.9256273   5.2525020  29.5837928  45.6017590
   4.6574952  29.8642941  44.9064078   4.9674717  30.0731829  46.3734331
   4.3832511  43.5360855  34.3620222   5.3163184  43.4706417  34.5653098
   4.2955723  44.3717122  33.9034755   7.0120527  42.8526725  31.3224170
   6.9334159  42.5186589  32.2159928   7.8330194  43.3448493  31.3215642
   9.7098718  35.7188465  44.5300488   9.6775039  34.7804465  44.7160172
  10.3199342  35.7972501  43.7966313   1.5482049  34.5884518  30.5727692
   2.4941154  34.4590726  30.6416110   1.1696294  33.8499180  31.0497120
   9.8593207  32.5099508  44.5758771   9.3432256  31.7257965  44.3888700
  10.7433155  32.1818225  44.7405291   7.5203934  26.2540524  40.5354584
   7.3228755  25.9455612  41.4197916   8.1303639  26.9802163  40.6652514
  15.5275268  36.7804472  43.6706525  16.2578657  36.5189760  44.2314228
  14.9182214  36.0433194  43.7108593  13.6090565  34.9212334  44.2680976
  12.8823729  34.7868299  43.6597468  13.1937852  35.2289163  45.0737694
   3.2777580  26.1349431  38.2851115   3.8308619  26.5544884  38.9441139
   3.5147667  25.2085179  38.3274071   6.6556388  28.2449956  37.7929780
   6.0755057  28.9034760  37.4107832   6.3892320  27.4227300  37.3817197
   5.1059954  27.6455013  39.9951100   5.6059732  27.7571548  39.1865419
   5.7495562  27.3416066  40.6351908   5.4381266  30.4050046  36.8486128
   4.5507121  30.6899697  36.6306323   5.8535255  30.2443810  36.0013405
   8.7895802  30.4296567  40.5640467   9.5656192  30.9193020  40.8365084
   8.0643936  30.8554621  41.0212337  11.2268360  31.1424186  41.6214408
  11.8212851  30.9019922  40.9107716  11.2994944  30.4231317  42.2487944
   4.5824479  40.1694721  30.9434148   5.2860329  40.3744723  31.5591804
   3.8587128  40.7371483  31.2083231   5.4122289  35.9204582  37.0636418
   5.3557491  36.3773134  36.2244051   5.9650632  35.1595267  36.8859261
   9.2227095  31.7094314  37.8886538   8.9664029  31.3090950  38.7194745
   8.5979963  32.4238108  37.7636677  13.5339433  34.4490387  40.3957829
  12.9738991  34.5183577  41.1689391  12.9282936  34.2731372  39.6757325
   6.4911176  40.6077250  32.9932608   7.3256780  40.1758449  32.8110083
   6.3295519  40.4359264  33.9209502   6.1457069  37.1109363  34.3588947
   6.0905872  36.9453635  33.4177391   5.5203124  37.8185396  34.5151137
   3.2705314  23.2060249  38.1920203   2.5037709  22.6518736  38.3376885
   3.6816018  23.2782118  39.0534354  15.1195451  51.1246901  43.0887785
  15.7573861  51.0053649  42.3851125  15.0016294  52.0727745  43.1475737
  11.9285158  51.0774329  43.0249309  11.5903669  50.9615394  42.1369844
  12.7974926  50.6765494  43.0050316   9.6293437  49.8462577  32.3566250
   9.8818958  49.3244098  31.5949713   8.6917996  49.6828722  32.4592933
  14.6736720  48.8498355  40.1640993  15.4599809  48.4317778  39.8131410
  14.9375424  49.7544447  40.3322641  20.0745147  48.7873588  41.0673971
  20.8070319  48.2172805  41.3011801  19.3184503  48.3995189  41.5080477
  11.6921267  51.2100830  38.2637314  11.3279474  50.6831451  38.9750235
  12.5488383  50.8199299  38.0903799  17.5970567  42.4995162  45.5268580
  17.2653892  43.3690573  45.3029795  17.0016181  42.1831446  46.2062610
  11.3326754  46.2390729  33.2598662  11.5001156  47.1070966  33.6269133
  11.1423923  46.4018011  32.3359952  17.4899231  47.2190248  42.6061930
  16.5816108  47.1505657  42.3120691  17.4386827  47.6962193  43.4343755
  11.3115975  48.6948387  34.2445329  11.1915600  49.1405438  35.0830809
  10.6168563  49.0433705  33.6858867  19.3560877  45.4206687  44.3839804
  18.7135257  45.7139220  43.7379598  18.8515806  45.3059607  45.1893001
  17.0101041  49.1669860  35.0725663  17.9218897  49.3997247  34.8973361
  16.5010688  49.7506904  34.5100742  11.6472879  48.5267095  46.0820513
  12.4934074  48.9506508  46.2255162  11.5871516  47.8700719  46.7759076
  14.7972324  46.1871463  47.7401686  14.5533256  46.9413524  47.2035962
  15.0732254  46.5656811  48.5748933  16.7510787  52.7310075  46.4178952
  16.9627682  53.3741835  45.7413333  16.7040535  51.8972392  45.9500882
  14.3537016  45.3427896  43.3215524  13.4921495  45.6409150  43.6132262
  14.3799450  45.5598295  42.3896557  10.1067471  50.0093239  36.5378895
  10.8091514  50.4614283  37.0052821   9.7748100  49.3677058  37.1658788
   3.8492805  48.2676792  41.8396028   3.0591859  48.5234320  41.3636139
   4.3404052  49.0825129  41.9448069   5.8007550  48.6321371  38.7979505
   5.0038714  48.7440065  39.3163001   5.5733143  48.9708023  37.9320396
  25.9562608  51.9520779  40.9386281  25.2026316  51.3828177  40.7830285
  26.0910149  51.9183444  41.8856915  14.6953699  40.3464743  45.1439894
  14.3517969  41.2366385  45.0679004  15.0632662  40.1566401  44.2809479
  14.6603982  50.3373355  33.6512329  14.1450605  51.1077959  33.8900716
  14.3881290  49.6638491  34.2745390  12.2451093  45.1823055  38.7097567
  11.3892689  44.7929906  38.5303206  12.6578045  45.2615016  37.8497353
  13.7750240  42.7169399  43.1089127  13.2715035  42.6799534  42.2956932
  14.0680847  43.6262141  43.1685783  10.0193126  42.8008128  42.1155309
  10.8846122  42.6050937  41.7561198  10.0870634  42.5718480  43.0424665
  19.6338256  53.0905709  35.5865502  18.8567699  52.7516869  35.1420664
  20.3129737  53.0958332  34.9120467  14.4490285  48.2100447  35.4772110
  14.1440421  48.5246596  36.3282253  15.4020727  48.2881867  35.5199443
  17.8729563  52.5639690  42.2432110  17.2153237  53.2538952  42.3312239
  18.6769962  52.9536122  42.5866096   7.6255445  45.0310336  39.4871675
   8.1999197  44.8085518  38.7544868   8.2126427  45.0999031  40.2400277
  16.6835022  50.9184063  40.2936052  17.1966904  51.5514055  40.7957762
  17.3336246  50.3185259  39.9279412   7.9525032  47.0614797  33.5067561
   7.1162344  47.3989484  33.8276835   7.8129801  46.9263777  32.5694698
   9.9278112  41.9051585  38.2146745   9.2742525  41.5900602  37.5903360
   9.8858586  41.2827326  38.9406568  13.1615853  48.3933519  42.5394392
  12.2438414  48.6148466  42.3816080  13.5775996  48.4679829  41.6806100
  13.9450900  49.7924934  37.6697073  14.6922719  50.3046332  37.3604195
  14.2142490  49.4708987  38.5301466  16.3929738  46.8282051  39.6515862
  15.6552494  46.3159437  39.9826105  16.6456511  46.3882432  38.8399139
  16.4941365  39.6058303  40.2457631  16.8000242  38.7455666  39.9583546
  17.2193970  40.1975923  40.0456625  10.7662445  49.9012096  40.7533822
  10.8211054  48.9485932  40.6776299   9.9553647  50.0571535  41.2375121
   8.7054805  48.5189155  38.5124201   7.8922670  48.8183326  38.9189393
   9.2013799  48.1244844  39.2298683  14.3029016  48.9830980  47.3439095
  14.6578404  49.2102453  48.2033561  14.9501148  49.3149357  46.7216350
  20.0326753  52.1049416  38.0488424  19.8944652  52.2951012  37.1209613
  19.6762972  52.8668799  38.5056475   8.1968879  46.0907511  44.1285436
   8.8368259  45.9496270  43.4308399   7.3646410  45.8042024  43.7524038
  20.0596133  54.1725943  43.0599696  20.4932639  54.0801232  43.9082750
  20.7727714  54.1483443  42.4219712   5.1997496  46.0607836  38.9058423
   5.4604313  46.9753169  38.7967583   6.0214668  45.5932279  39.0555036
  20.9211682  54.2149644  45.5932581  21.1147572  55.1195454  45.8391856
  20.8212301  53.7557063  46.4271166  12.5747993  44.1007534  48.0922908
  11.9275908  44.7997484  47.9987385  13.3449009  44.5343678  48.4599157
  12.7512127  51.9388299  46.1519728  13.6804187  52.0899459  45.9788695
  12.3303157  52.0272320  45.2968375   7.8263412  46.9062025  30.7065467
   6.9492878  46.7850826  30.3427714   8.3021165  46.1148103  30.4544356
  14.3223988  45.0682945  40.5962193  14.8192688  44.3152907  40.2763264
  13.5510970  45.1047261  40.0305403  22.1753746  50.7723310  42.2380485
  22.1643622  51.6548026  41.8674418  21.3071125  50.4194861  42.0435022
  10.9058957  47.2100328  40.3233878  10.5356744  46.6571368  41.0114783
  11.4018049  46.6058461  39.7708878  18.7926320  49.6671951  38.7050651
  19.2586772  50.4999943  38.6310953  19.2433821  49.2016933  39.4095909
  16.7642983  42.0352538  42.7441552  15.8506063  42.2656765  42.9123759
  17.1936084  42.1190982  43.5955585  16.5349441  50.2242430  45.2441446
  15.8820892  50.4718337  44.5893899  16.9129821  49.4106568  44.9103923
   6.0836353  46.5759877  42.1305922   5.3622939  47.1895844  41.9913395
   6.8729609  47.1117641  42.0522568   8.8862666  43.9114303  48.4046573
   9.4097068  44.1576600  49.1672883   8.6675000  44.7434338  47.9849711
   4.2829947  46.1817978  36.2717698   3.9542654  45.3015357  36.0892804
   4.6369318  46.1265646  37.1594087   7.3971771  46.4690947  36.6393176
   7.7367843  46.9976869  35.9171784   7.8443891  46.8071354  37.4151742
  10.0915211  44.8527998  46.0896244   9.7512032  44.0535811  46.4916924
   9.3854218  45.1529709  45.5173077  10.7431683  41.9377311  44.5423567
  11.5657753  41.4637789  44.4202457  10.9869747  42.7167794  45.0422253
   9.3839918  44.9665569  34.8386469  10.1048280  45.3446822  34.3350185
   8.7605222  45.6854446  34.9421447  13.5271041  45.6710718  35.7744801
  13.7434655  46.5535356  35.4733629  13.0465108  45.2796931  35.0450443
   8.2670262  48.6296431  42.3515546   8.1214843  48.9436734  43.2439827
   7.7895466  49.2481332  41.7986444  10.1266645  45.6198979  42.3996435
  10.1128214  44.7240073  42.0628733  10.8439073  45.6269643  43.0334721
  11.9792776  46.0536319  44.4449563  11.7210553  46.9753390  44.4433893
  11.4477816  45.6566754  45.1350027   9.5303541  44.5013360  37.6684005
   9.6519452  43.5730006  37.8674893   9.2405583  44.5152045  36.7562321
  12.3994731  42.1868270  40.8050725  12.4216428  42.2507603  39.8502705
  12.8162790  41.3472779  40.9991231  22.7778355  51.9223529  38.8429948
  23.2209502  51.1730855  38.4449071  21.9004866  51.9133666  38.4603680
  19.6197341  53.4078946  48.4707803  19.6695346  53.2428954  49.4123326
  19.5111264  52.5406206  48.0805684  16.9101103  49.3909875  49.7867110
  17.8110966  49.2516339  49.4951108  16.9849078  49.5564329  50.7265288
  22.3211220  53.3928768  41.2352395  23.1558112  53.8318572  41.3989956
  22.4570349  52.9167421  40.4160641  19.3702726  50.9508503  47.1829883
  19.8456848  51.1436149  46.3748734  18.4468291  51.0067688  46.9373267
  13.9482943  42.9856346  46.1485717  14.4664886  43.7217373  45.8232205
  13.5938075  43.2920339  46.9832476   5.5281880  47.8461027  34.2647123
   4.8351125  47.9205382  33.6087159   5.2833632  47.0821371  34.7868640
  14.1995537  39.4056629  41.6686613  14.4797291  38.7379818  42.2947040
  14.9846144  39.5985724  41.1561277  18.0704395  47.8274263  45.4158189
  19.0221818  47.9272360  45.4370413  17.9007846  47.0352531  45.9256273
  16.0918775  44.9129846  45.6017590  15.4968707  45.1934859  44.9064078
  15.8068471  45.4023747  46.3734331  20.5492473  51.0480382  44.5300488
  20.5168793  50.1096383  44.7160172  21.1593097  51.1264419  43.7966313
  12.3875804  49.9176435  30.5727692  13.3334908  49.7882643  30.6416110
  12.0090049  49.1791097  31.0497120  20.6986961  47.8391426  44.5758771
  20.1826010  47.0549882  44.3888700  21.5826910  47.5110142  44.7405291
  18.3597688  41.5832441  40.5354584  18.1622509  41.2747530  41.4197916
  18.9697394  42.3094080  40.6652514  26.3669023  52.1096389  43.6706525
  27.0972411  51.8481677  44.2314228  25.7575968  51.3725111  43.7108593
  24.4484320  50.2504252  44.2680976  23.7217483  50.1160217  43.6597468
  24.0331607  50.5581080  45.0737694  10.5718721  47.8426412  30.5082578
   9.6650176  47.5459524  30.5845291  10.8494702  47.5456230  29.6416864
  12.1880787  42.3863301  36.6626819  11.3781515  42.0410386  37.0382065
  12.8765204  42.0770845  37.2514430  14.1171335  41.4641348  38.2851115
  14.6702374  41.8836802  38.9441139  14.3541421  40.5377096  38.3274071
   9.3417506  44.7013347  30.6494557  10.2036670  45.0268245  30.9090374
   9.5267850  43.9144843  30.1367622  17.4950142  43.5741873  37.7929780
  16.9148811  44.2326677  37.4107832  17.2286075  42.7519218  37.3817197
  15.9453708  42.9746931  39.9951100  16.4453487  43.0863466  39.1865419
  16.5889316  42.6707984  40.6351908  16.2775020  45.7341964  36.8486128
  15.3900875  46.0191614  36.6306323  16.6929009  45.5735727  36.0013405
  19.6289556  45.7588485  40.5640467  20.4049946  46.2484937  40.8365084
  18.9037690  46.1846539  41.0212337  22.0662115  46.4716104  41.6214408
  22.6606606  46.2311840  40.9107716  22.1388698  45.7523235  42.2487944
  16.2516044  51.2496500  37.0636418  16.1951245  51.7065051  36.2244051
  16.8044386  50.4887184  36.8859261  20.0620850  47.0386232  37.8886538
  19.8057784  46.6382867  38.7194745  19.4373718  47.7530026  37.7636677
  24.3733188  49.7782305  40.3957829  23.8132746  49.8475494  41.1689391
  23.7676691  49.6023290  39.6757325  16.9850823  52.4401281  34.3588947
  16.9299627  52.2745552  33.4177391  16.3596878  53.1477314  34.5151137
  10.2946949  41.9409390  33.9374266  10.2825618  42.8851230  34.0942537
  11.1870370  41.7579535  33.6433727  14.1099068  38.5352167  38.1920203
  13.3431464  37.9810653  38.3376885  14.5209773  38.6074035  39.0534354
  25.5347454  55.6756661  45.1439894  25.1911723  56.5658303  45.0679004
  25.9026416  55.4858319  44.2809479  27.3335119  54.9350220  40.2457631
  27.6393996  54.0747584  39.9583546  28.0587724  55.5267841  40.0456625
  25.0389291  54.7348546  41.6686613  25.3191045  54.0671735  42.2947040
  25.8239898  54.9277642  41.1561277  29.1991443  56.9124359  40.5354584
  29.0016264  56.6039447  41.4197916  29.8091148  57.6385998  40.6652514
  24.9492822  53.8644084  38.1920203  24.1825218  53.3102571  38.3376885
  25.3603527  53.9365953  39.0534354   4.2801698  12.8017106  29.8133091
   4.9180108  12.6823853  29.1096431   4.1622541  13.7497950  29.8721044
   1.0891405  12.7544534  29.7494616   0.7509916  12.6385599  28.8615151
   1.9581173  12.3535699  29.7295622   1.5711188  13.9079386  35.7080822
   1.5599828  13.5132184  34.8361325   1.7331827  13.1745459  36.3014593
   2.5277779  18.2750978  21.0505972   1.8765759  18.8605059  20.6639986
   3.3222142  18.8057173  21.1101009   3.8342967  10.5268560  26.8886299
   4.6206056  10.1087983  26.5376716   4.0981671  11.4314652  27.0567948
   4.0053044  15.9641410  21.5874956   3.3698877  16.0376037  22.2995861
   3.6750451  16.5535009  20.9094035   9.2351394  10.4643793  27.7919278
   9.9676566   9.8943010  28.0257107   8.4790750  10.0765394  28.2325784
   3.2508334  16.3777913  31.6509799   2.9509057  17.2802952  31.5425607
   2.9059393  16.1110096  32.5030952   6.6505478   8.8960453  29.3307237
   5.7422355   8.8275862  29.0365998   6.5993073   9.3732398  30.1589062
   8.5167124   7.0976892  31.1085111   7.8741504   7.3909425  30.4624905
   8.0122052   6.9829812  31.9138307   6.1707288  10.8440065  21.7970970
   7.0825144  11.0767452  21.6218667   5.6616935  11.4277109  21.2346048
   4.4548055  15.2664693  35.4332262   4.8631411  14.8247103  34.6886895
   3.7325317  14.6917320  35.6866455   0.8079125  10.2037300  32.8065819
   1.6540321  10.6276713  32.9500468   0.7477763   9.5470924  33.5004382
   4.7776870  15.8265883  29.1884551   4.1485732  15.9911598  28.4860619
   4.3902532  16.2407493  29.9595515   8.6566102  16.7620321  26.5428915
   7.9717140  17.1419223  25.9925948   8.7409951  17.3715648  27.2760863
   3.9578571   7.8641668  34.4646993   3.7139503   8.6183728  33.9281269
   4.2338501   8.2427016  35.2994240   5.9117033  14.4080280  33.1424259
   6.1233929  15.0512040  32.4658640   5.8646782  13.5742597  32.6746189
   3.5143262   7.0198101  30.0460831   2.6527741   7.3179355  30.3377568
   3.5405697   7.2368500  29.1141863   7.0262861  17.2852236  31.3146616
   7.8480305  16.8832423  31.0329298   7.0225264  17.1820470  32.2662732
  15.1168854  13.6290984  27.6631587  14.3632563  13.0598382  27.5075592
  15.2516396  13.5953649  28.6102222   2.1335959  19.1227953  37.4686649
   1.6899813  18.3364332  37.1507553   2.7953172  19.3107104  36.8030540
   4.2317197  19.4030753  35.4968050   4.2135672  20.2239634  35.0048319
   5.1537117  19.2784828  35.7218191   3.8210229  12.0143560  20.3757635
   3.3056852  12.7848164  20.6146023   3.5487537  11.3408696  20.9990697
   8.7944503  14.7675914  22.3110809   8.0173946  14.4287074  21.8665971
   9.4735984  14.7728537  21.6365774   3.6096532   9.8870652  22.2017416
   3.3046668  10.2016801  23.0527560   4.5626974   9.9652071  22.2444749
   2.0542964  16.0460875  23.8510370   1.5264325  15.3113635  23.5383608
   1.5530467  16.8235551  23.6050339   7.0335810  14.2409895  28.9677417
   6.3759484  14.9309157  29.0557545   7.8376209  14.6306327  29.3111403
   5.8441269  12.5954268  27.0181358   6.3573150  13.2284260  27.5203068
   6.4942492  11.9955464  26.6524719   3.1063643  22.5738592  19.7742030
   2.4325342  22.8770289  20.3826987   3.4929465  23.3767673  19.4247487
   2.3222099  10.0703724  29.2639699   1.4044661  10.2918671  29.1061387
   2.7382243  10.1450034  28.4051406   3.1057147  11.4695139  24.3942379
   3.8528966  11.9816537  24.0849501   3.3748737  11.1479192  25.2546773
   6.6103065  17.5760270  25.1460501   6.1565392  16.7351179  25.2025692
   5.9797032  18.2121668  25.4835281   5.5535984   8.5052256  26.3761169
   4.8158741   7.9929642  26.7071411   5.8062758   8.0652637  25.5644445
   5.0536004  19.4136766  26.0810319   5.3458978  19.9741823  25.3622685
   5.5634625  19.7065327  26.8363478   1.0759885  15.5062424  18.7157412
   0.6379315  14.7898283  18.2563049   1.8170326  15.7338539  18.1542504
   3.4635263  10.6601185  34.0684402   3.8184651  10.8872658  34.9278867
   4.1107394  10.9919562  33.4461657   9.1933000  13.7819621  24.7733731
   9.0550899  13.9721217  23.8454920   8.8369219  14.5439004  25.2301782
   9.2202380  15.8496148  29.7845002   9.6538886  15.7571437  30.6328056
   9.9333960  15.8253648  29.1465018   2.9530275  19.4498242  31.3178103
   3.0067297  20.0189178  32.0855819   2.0845056  19.6200127  30.9532140
  10.0817929  15.8919848  32.3177888  10.2753819  16.7965659  32.5637163
   9.9818547  15.4327267  33.1516473   5.1433038  16.0426591  37.8918768
   4.9918544  15.8137143  36.9748852   5.1337717  16.9997193  37.9050113
   1.9118374  13.6158504  32.8765035   2.8410434  13.7669664  32.7034002
   1.4909404  13.7042525  32.0213681   1.3054858  22.7418265  21.9889109
   1.4806614  22.2706308  22.8034731   0.6187646  23.3684031  22.2170370
   2.2611921  17.0190771  28.0352410   1.9261754  16.9791541  28.9310060
   1.7615867  16.3535487  27.5622820   5.1971113  14.3646805  18.3089470
   4.5800283  13.6393634  18.2122522   4.7287601  15.1256166  17.9656544
   6.8525244  19.0745714  35.9695250   6.7937791  18.3904934  35.3025833
   7.2544763  19.8164704  35.5175876   6.8542652  17.0385298  34.2009230
   5.9669431  16.7011219  34.3235629   7.4241203  16.3068329  34.4377995
  11.3359992  12.4493515  28.9625791  11.3249869  13.3318230  28.5919724
  10.4677372  12.0965066  28.7680328   2.8442489  21.5973584  33.3228632
   3.5570461  22.2321049  33.2504533   2.3532517  21.6937450  32.5068633
   4.5660016  15.5024837  24.8945923   3.6316294  15.6226299  24.7250628
   4.7436684  14.5997303  24.6305933   7.9532567  11.3442156  25.4295957
   8.4193019  12.1770148  25.3556260   8.4040067  10.8787138  26.1341216
   6.0208798  17.6885977  22.4282109   6.2968642  17.5742572  23.3375984
   5.1513297  17.2903462  22.3894283   5.6955688  11.9012635  31.9686753
   5.0427138  12.1488542  31.3139206   6.0736068  11.0876773  31.6349230
   2.6562862  21.9372328  26.0714923   2.8385257  21.1193984  26.5342675
   3.4795848  22.1540020  25.6339813   2.9905028  20.8640513  23.3329972
   3.5192794  20.3532968  22.7200134   3.2533247  20.5483043  24.1975505
   1.7443261  12.6432446  38.4552790   1.0683898  12.5426575  39.1255165
   2.5670895  12.4871660  38.9188787   5.3376918  18.7760631  38.5459060
   5.8816822  19.3890589  38.0514015   4.7563763  19.3340209  39.0626073
   3.6234431  21.8981349  29.6774088   3.4985571  21.0971089  29.1685034
   4.2813522  22.3927542  29.1888058   5.6869340  19.6990369  31.3053638
   4.7399675  19.5795720  31.2331965   6.0352113  18.8112867  31.3879900
   2.6915773  19.4943085  27.5057990   2.5440735  18.5659793  27.6865560
   3.5169267  19.5163176  27.0215066   6.2949895  20.3171644  28.5922863
   7.2196442  20.1114505  28.4547314   6.1265198  20.0688045  29.5012205
   6.0845211  20.8357311  23.9484955   6.2582089  20.2703734  23.1958807
   6.5774102  21.6358206  23.7664445  11.9384602  13.5993734  25.5675254
  12.3815748  12.8501060  25.1694378  11.0611113  13.5903871  25.1848986
   7.0720384  20.1524076  21.0481853   7.7671288  20.7730769  21.2669167
   7.4143534  19.3019427  21.3234231   8.9711807  17.6023781  22.5769184
   9.4963131  17.9411054  21.8518504   8.8834159  16.6670797  22.3932318
   0.6331855  21.5157855  34.7059060   0.9418982  21.2707002  35.5781760
   1.4307337  21.7204494  34.2177930   8.6605713  18.2356685  37.8820382
   7.8701256  18.2180824  37.3424881   8.4239067  18.7744979  38.6369418
   8.7803588  15.0849151  35.1953110   8.8301593  14.9199159  36.1368633
   8.6717511  14.2176410  34.8050991   6.0707350  11.0680079  36.5112417
   6.9717213  10.9286544  36.2196415   6.1455325  11.2334534  37.4510594
  10.2821785  17.5046093  35.4395132   9.9906593  17.8676073  36.2758593
   9.6693916  16.7913101  35.2608464  11.4817467  15.0698973  27.9597702
  12.3164358  15.5088777  28.1235262  11.6176596  14.5937626  27.1405948
   8.5308973  12.6278708  33.9075190   9.0063094  12.8206354  33.0994041
   7.6074538  12.6837893  33.6618573   1.1635252  20.2585828  19.9556946
   0.5909219  20.8776015  19.5027418   1.7368046  20.8085189  20.4896868
   7.2310642   9.5044468  32.1403495   8.1828065   9.6042565  32.1615719
   7.0614092   8.7122736  32.6501580   5.2525021   6.5900051  32.3262896
   4.6574953   6.8705064  31.6309385   4.9674718   7.0793952  33.0979637
   4.3832512  20.5422978  21.0865529   5.3163185  20.4768539  21.2898404
   4.2955725  21.3779245  20.6280061   7.0120528  19.8588848  18.0469476
   6.9334160  19.5248712  18.9405234   7.8330195  20.3510616  18.0460949
   9.7098720  12.7250587  31.2545795   9.6775040  11.7866588  31.4405479
  10.3199343  12.8034624  30.5211620   1.5482051  11.5946640  17.2972999
   2.4941155  11.4652848  17.3661417   1.1696295  10.8561302  17.7742427
   9.8593208   9.5161631  31.3004078   9.3432257   8.7320087  31.1134007
  10.7433157   9.1880347  31.4650598  15.5275270  13.7866594  30.3951832
  16.2578658  13.5251882  30.9559535  14.9182215  13.0495316  30.4353900
  13.6090567  11.9274457  30.9926283  12.8823730  11.7930422  30.3842774
  13.1937854  12.2351285  31.7983001   1.4320743  15.6464386  38.7573656
   2.3523753  15.8242985  38.9513702   1.3970326  14.7020432  38.6053355
   5.4381267   7.4112169  23.5731435   4.5507122   7.6961819  23.3551629
   5.8535256   7.2505932  22.7258712   8.7895803   7.4358690  27.2885774
   9.5656193   7.9255142  27.5610391   8.0643937   7.8616744  27.7457643
  11.2268362   8.1486309  28.3459714  11.8212852   7.9082045  27.6353023
  11.2994945   7.4293440  28.9733251   4.5824480  17.1756843  17.6679455
   5.2860330  17.3806846  18.2837110   3.8587129  17.7433605  17.9328538
   5.4122291  12.9266705  23.7881725   5.3557492  13.3835256  22.9489357
   5.9650633  12.1657389  23.6104568   9.2227096   8.7156437  24.6131844
   8.9664031   8.3153072  25.4440052   8.5979964   9.4300230  24.4881983
  13.5339434  11.4552510  27.1203136  12.9738992  11.5245699  27.8934698
  12.9282938  11.2793494  26.4002632   6.4911178  17.6139373  19.7177915
   7.3256782  17.1820571  19.5355389   6.3295521  17.4421386  20.6454809
   6.1457070  14.1171486  21.0834254   6.0905874  13.9515757  20.1422698
   5.5203125  14.8247519  21.2396444   3.4602977  16.4220398  40.4087817
   4.3294137  16.5961050  40.0474452   2.9809729  17.2414815  40.2863546
  15.1195453  28.1309024  29.8133091  15.7573863  28.0115771  29.1096431
  15.0016296  29.0789868  29.8721044  11.9285159  28.0836452  29.7494616
  11.5903671  27.9677517  28.8615151  12.7974927  27.6827617  29.7295622
   7.7871975  29.9371928  25.7391507   7.2236840  29.8461865  24.9707795
   7.6724370  29.1171833  26.2194000  12.4104942  29.2371304  35.7080822
  12.3993583  28.8424102  34.8361325  12.5725582  28.5037376  36.3014593
   5.3336407  31.4323120  28.5775727   6.1257699  31.0913945  28.1622027
   5.5733057  31.5418095  29.4977881  13.3671533  33.6042896  21.0505972
  12.7159513  34.1896976  20.6639986  14.1615896  34.1349091  21.1101009
   7.2927161  30.6932033  21.4493106   8.0658037  30.1461020  21.3105982
   7.6452559  31.5576282  21.6607568   9.1312203  32.0208415  34.6560006
   8.8402069  32.9254046  34.5406672   9.7669188  32.0624943  35.3704075
  10.0568410  29.3985264  31.2461365  10.6531982  29.1741286  30.5318328
  10.1143382  28.6570009  31.8486813   9.6293438  26.8524699  19.0811556
   9.8818959  26.3306221  18.3195019   8.6917998  26.6890845  19.1838240
  14.8446799  31.2933328  21.5874956  14.2092632  31.3667954  22.2995861
  14.5144205  31.8826927  20.9094035   9.3489727  28.7552805  21.2835931
   9.2325985  28.0797709  21.9517015   9.4591987  28.2685179  20.4668084
  11.6921268  28.2162952  24.9882620  11.3279475  27.6893573  25.6995542
  12.5488384  27.8261421  24.8149106  17.5970569  19.5057285  32.2513887
  17.2653894  20.3752696  32.0275102  17.0016182  19.1893569  32.9307917
  11.3326755  23.2452852  19.9843969  11.5001157  24.1133088  20.3514440
  11.1423924  23.4080134  19.0605258  14.0902088  31.7069831  31.6509799
  13.7902811  32.6094870  31.5425607  13.7453148  31.4402014  32.5030952
   7.5414570  28.1583628  27.6846504   6.6165066  28.0259842  27.8924195
   7.7898983  28.9377847  28.1816446  17.4899232  24.2252371  29.3307237
  16.5816109  24.1567780  29.0365998  17.4386828  24.7024316  30.1589062
  11.3115976  25.7010509  20.9690636  11.1915601  26.1467560  21.8076116
  10.6168564  26.0495827  20.4104174   4.9023381  27.8016901  28.5190293
   5.0315762  28.0551380  29.4329704   4.2220832  28.3944609  28.1994948
   9.0722868  38.4714151  24.6180767   8.9946898  39.4221976  24.6969248
   8.4684512  38.1260024  25.2755693  11.5640098  25.6442017  37.2742134
  10.7873432  26.2035937  37.2644999  12.2030661  26.1298800  37.7957004
  19.3560878  22.4268809  31.1085111  18.7135259  22.7201343  30.4624905
  18.8515807  22.3121730  31.9138307   9.8186470  28.4527470  36.8360101
  10.5601155  28.9912514  36.5594924   9.1123456  29.0793759  36.9931653
  15.2941810  30.5956610  35.4332262  15.7025166  30.1539021  34.6886895
  14.5719071  30.0209238  35.6866455  11.6472880  25.5329217  32.8065819
  12.4934075  25.9568631  32.9500468  11.5871517  24.8762842  33.5004382
  15.6170624  31.1557801  29.1884551  14.9879487  31.3203515  28.4860619
  15.2296287  31.5699411  29.9595515  14.7972325  23.1933586  34.4646993
  14.5533257  23.9475646  33.9281269  15.0732256  23.5718933  35.2994240
  16.7510788  29.7372198  33.1424259  16.9627683  30.3803958  32.4658640
  16.7040536  28.9034515  32.6746189  14.3537017  22.3490019  30.0460831
  13.4921496  22.6471272  30.3377568  14.3799452  22.5660418  29.1141863
  11.1698586  30.8932209  26.4534636  11.6336932  31.1719912  25.6639259
  10.9055384  29.9915654  26.2707727   8.0622667  30.4403691  29.3914400
   8.6324024  30.8690959  28.7531884   8.6530779  30.1586275  30.0898585
  10.1067472  27.0155362  23.2624201  10.8091516  27.4676405  23.7298128
   9.7748101  26.3739180  23.8904095   8.5547834  25.6067118  37.6375411
   7.9246494  26.2883399  37.8710808   8.4483922  25.4950200  36.6928549
   3.8492806  25.2738914  28.5641335   3.0591860  25.5296443  28.0881446
   4.3404054  26.0887252  28.6693376  17.8656616  32.6144153  31.3146616
  18.6874060  32.2124341  31.0329298  17.8619019  32.5112388  32.2662732
   5.8007552  25.6383493  25.5224812   5.0038715  25.7502188  26.0408307
   5.5733144  25.9770146  24.6565702  11.6313219  32.1628197  33.4707326
  11.6957652  32.6248604  34.3065498  10.9224143  31.5325562  33.5989636
   2.1330509  25.5269405  30.9956326   2.3838548  26.4116415  31.2613902
   2.6690058  25.3474006  30.2231418  11.3461237  33.8296304  23.3386307
  11.2106912  34.6747840  23.7671155  11.8871049  34.0315582  22.5752241
   7.8328577  19.9087884  40.0000662   7.4395522  19.3554083  40.6748306
   8.6494717  20.2198463  40.3907179   4.7990634  31.3471742  23.9114232
   5.3115155  32.1414992  24.0619796   5.4513347  30.6498033  23.8447833
   6.6085519  34.4637499  25.9936985   6.7852147  35.3855463  25.8057969
   7.4042353  34.1495918  26.4231365  10.7496538  21.3245763  37.5920918
  11.4906251  21.9252916  37.5125381  10.9814460  20.5823401  37.0338961
   5.8937876  26.5102130  35.8699148   5.7791391  25.6087388  36.1706247
   5.0382393  26.7565827  35.5183965  12.9729713  34.4519871  37.4686649
  12.5293568  33.6656249  37.1507553  13.6346927  34.6399021  36.8030540
   7.7316835  35.9815672  31.9947327   8.2824260  35.8532736  31.2224321
   6.8928310  36.2810561  31.6442220  15.0710951  34.7322671  35.4968050
  15.0529427  35.5531552  35.0048319  15.9930871  34.6076746  35.7218191
  11.5284006  32.2466800  36.3391558  12.0612342  31.4855088  36.1090866
  10.9998087  31.9540452  37.0815713  14.6953701  17.3526866  31.8685200
  14.3517970  18.2428508  31.7924311  15.0632663  17.1628524  31.0054785
   2.7639551  29.6760397  24.6873802   3.6014773  30.0857405  24.4707510
   2.9417819  28.7359839  24.6573996  14.6603983  27.3435477  20.3757635
  14.1450607  28.1140082  20.6146023  14.3881292  26.6700613  20.9990697
  12.2451094  22.1885178  25.4342874  11.3892691  21.7992028  25.2548512
  12.6578046  22.2677139  24.5742659  13.7750241  19.7231521  29.8334433
  13.2715037  19.6861656  29.0202239  14.0680848  20.6324264  29.8931090
  10.0193127  19.8070251  28.8400615  10.8846124  19.6113060  28.4806505
  10.0870636  19.5780603  29.7669972  14.4490286  25.2162569  22.2017416
  14.1440422  25.5308718  23.0527560  15.4020729  25.2943989  22.2444749
  12.8936718  31.3752793  23.8510370  12.3658080  30.6405552  23.5383608
  12.3924221  32.1527469  23.6050339   7.6255446  22.0372459  26.2116982
   8.1999198  21.8147640  25.4790175   8.2126428  22.1061153  26.9645583
   7.9525033  24.0676920  20.2312867   7.1162345  24.4051606  20.5522142
   7.8129803  23.9325900  19.2940004   9.9278114  18.9113708  24.9392051
   9.2742526  18.5962725  24.3148666   9.8858588  18.2889448  25.6651874
  11.0389318  29.1933003  16.8545343  10.1316380  28.9622256  17.0536492
  11.5360350  28.3970622  17.0419325  13.9457397  37.9030510  19.7742030
  13.2719096  38.2062207  20.3826987  14.3323219  38.7059590  19.4247487
  13.1615854  25.3995641  29.2639699  12.2438415  25.6210588  29.1061387
  13.5775998  25.4741952  28.4051406  12.2177552  29.2945598  21.3769334
  11.3088771  29.0104631  21.4741803  12.2472636  29.7144676  20.5172640
  17.4496819  32.9052187  25.1460501  16.9959146  32.0643097  25.2025692
  16.8190786  33.5413586  25.4835281  15.8929759  34.7428684  26.0810319
  16.1852733  35.3033741  25.3622685  16.4028379  35.0357245  26.8363478
  16.4941366  16.6120425  26.9702938  16.8000243  15.7517789  26.6828853
  17.2193971  17.2038045  26.7701932   2.7865722  27.0151112  25.3584536
   2.5890122  26.4220473  24.6335602   2.2312386  26.7103322  26.0760475
  10.7662446  26.9074218  27.4779129  10.8211056  25.9548055  27.4021605
   9.9553648  27.0633657  27.9620427  11.9153640  30.8354341  18.7157412
  11.4773070  30.1190200  18.2563049  12.6564081  31.0630456  18.1542504
   8.7054806  25.5251278  25.2369508   7.8922671  25.8245449  25.6434700
   9.2013800  25.1306967  25.9543990  10.8563384  35.5209035  27.1703772
  10.8139563  35.7469881  26.2412304  11.7726083  35.2872410  27.3189574
  14.3029018  25.9893103  34.0684402  14.6578405  26.2164576  34.9278867
  14.9501149  26.3211479  33.4461657   8.1968881  23.0969634  30.8530743
   8.8368260  22.9558393  30.1553706   7.3646411  22.8104147  30.4769345
   8.9729185  32.3972064  26.9665735   9.7669783  31.9022384  26.7648310
   8.2620877  31.8689927  26.6033441  13.7924029  34.7790160  31.3178103
  13.8461051  35.3481096  32.0855819  12.9238810  34.9492045  30.9532140
   5.2811948  26.5415146  23.0425488   4.3509536  26.4799601  23.2595450
   5.3769420  26.0191099  22.2462129   5.1997497  23.0669959  25.6303730
   5.4604314  23.9815292  25.5212890   6.0214669  22.5994401  25.7800342
   6.6722422  24.4807716  32.8002554   7.3445476  24.2725078  32.1515203
   5.8452209  24.2829802  32.3607786  20.9211684  31.2211766  32.3177888
  21.1147574  32.1257577  32.5637163  20.8212302  30.7619185  33.1516473
  12.5747994  21.1069657  34.8168215  11.9275909  21.8059606  34.7232691
  13.3449010  21.5405801  35.1844463  15.9826792  31.3718509  37.8918768
  15.8312299  31.1429061  36.9748852  15.9731472  32.3289110  37.9050113
  12.7512129  28.9450422  32.8765035  13.6804189  29.0961581  32.7034002
  12.3303159  29.0334442  32.0213681  11.5500461  32.9701086  30.6463572
  11.4111546  32.6019870  31.5189510  10.7615057  33.4848725  30.4747530
  12.1448612  38.0710182  21.9889109  12.3200368  37.5998226  22.8034731
  11.4581401  38.6975949  22.2170370  13.1005676  32.3482689  28.0352410
  12.7655508  32.3083459  28.9310060  12.6009621  31.6827405  27.5622820
   7.0749920  27.7550319  33.5604991   6.9369718  27.0230558  34.1616530
   7.9854843  27.6659219  33.2789179  16.0364867  29.6938723  18.3089470
  15.4194038  28.9685551  18.2122522  15.5681356  30.4548083  17.9656544
   9.7032220  27.4670278  33.0488671  10.4131839  26.8263470  33.0075289
   9.6601528  27.7183173  33.9714852  17.6918999  34.4037631  35.9695250
  17.6331545  33.7196852  35.3025833  18.0938517  35.1456621  35.5175876
   8.4161154  24.4535496  34.8684310   7.8798511  24.0026234  35.5205907
   7.8277863  24.5881405  34.1254775   6.7109698  41.2199545  28.7628969
   6.9506296  41.8518069  29.4407988   5.8678894  40.8687585  29.0494328
   7.8263413  23.9124147  17.4310774   6.9492880  23.7912948  17.0673021
   8.3021166  23.1210226  17.1789663  17.6936406  32.3677215  34.2009230
  16.8063185  32.0303137  34.3235629  18.2634957  31.6360247  34.4377995
   4.1500276  23.5891504  31.9537305   4.0658464  22.9817173  31.2187715
   3.3282982  24.0800522  31.9546801  11.2237560  37.0278668  31.1670473
  11.1507731  37.8333639  31.6789778  10.7814953  37.2270634  30.3418494
  11.0127339  36.2650438  24.6773295  10.2294861  36.8072118  24.7711519
  11.7120084  36.7824417  25.0767536  14.3223989  22.0745067  27.3207500
  14.8192689  21.3215029  27.0008570  13.5510971  22.1109384  26.7550709
  13.6836243  36.9265502  33.3228632  14.3964215  37.5612967  33.2504533
  13.1926272  37.0229368  32.5068633  15.4053770  30.8316754  24.8945923
  14.4710049  30.9518217  24.7250628  15.5830439  29.9289221  24.6305933
  10.9058958  24.2162450  27.0479184  10.5356746  23.6633491  27.7360090
  11.4018051  23.6120584  26.4954185   8.7348157  34.6759945  34.1434202
   9.4357616  35.3096428  34.2963597   8.2643272  35.0174677  33.3829842
  16.8602553  33.0177895  22.4282109  17.1362396  32.9034490  23.3375984
  15.9907051  32.6195380  22.3894283  16.7642984  19.0414661  29.4686859
  15.8506064  19.2718888  29.6369066  17.1936086  19.1253105  30.3200891
  16.5349443  27.2304553  31.9686753  15.8820893  27.4780460  31.3139206
  16.9129823  26.4168691  31.6349230  13.4956617  37.2664246  26.0714923
  13.6779011  36.4485902  26.5342675  14.3189603  37.4831938  25.6339813
  13.8298782  36.1932431  23.3329972  14.3586548  35.6824886  22.7200134
  14.0927002  35.8774961  24.1975505  12.5837016  27.9724364  38.4552790
  11.9077653  27.8718493  39.1255165  13.4064650  27.8163577  38.9188787
   4.3315875  34.2096300  31.0765305   4.9169312  33.4639988  31.2093209
   4.1340713  34.5200257  31.9601969   7.1854530  37.2447548  26.0927748
   6.5164905  37.7293675  25.6091788   7.0467400  37.4916768  27.0071126
  11.3259799  39.2791291  32.6910406  11.8778107  39.4422913  33.4559491
  11.6665992  39.8695729  32.0190431   6.3024292  21.6266441  33.2932291
   6.3665618  22.4881272  32.8809688   6.2391412  21.0140443  32.5604649
   5.7776564  23.6989573  36.9405325   6.4048603  23.3166651  37.5542849
   4.9204483  23.4803775  37.3061017  16.1770673  34.1052549  38.5459060
  16.7210577  34.7182507  38.0514015  15.5957518  34.6632127  39.0626073
   2.5542107  25.5066003  22.8723680   2.8495548  24.5976681  22.8190733
   1.6530143  25.4853742  22.5504682  14.4628186  37.2273267  29.6774088
  14.3379325  36.4263007  29.1685034  15.1207277  37.7219460  29.1888058
   6.0836354  23.5821999  28.8551228   5.3622940  24.1957967  28.7158702
   6.8729610  24.1179764  28.7767874  16.5263094  35.0282287  31.3053638
  15.5793430  34.9087638  31.2331965  16.8745867  34.1404785  31.3879900
   8.8862668  20.9176426  35.1291880   9.4097069  21.1638722  35.8918189
   8.6675001  21.7496460  34.7095017   4.2829949  23.1880100  22.9963005
   3.9542655  22.3077479  22.8138111   4.6369319  23.1327769  23.8839394
  13.5309528  34.8235003  27.5057990  13.3834490  33.8951710  27.6865560
  14.3563021  34.8455094  27.0215066   7.3971772  23.4753070  23.3638483
   7.7367844  24.0038991  22.6417091   7.8443892  23.8133476  24.1397049
  17.1343649  35.6463562  28.5922863  18.0590197  35.4406423  28.4547314
  16.9658953  35.3979963  29.5012205  10.0915213  21.8590121  32.8141551
   9.7512033  21.0597934  33.2162230   9.3854219  22.1591832  32.2418384
  10.7431684  18.9439433  31.2668874  11.5657754  18.4699911  31.1447764
  10.9869748  19.7229917  31.7667560   9.3839919  21.9727692  21.5631775
  10.1048281  22.3508944  21.0595492   8.7605223  22.6916568  21.6666753
  13.5271042  22.6772841  22.4990108  13.7434656  23.5597478  22.1978936
  13.0465109  22.2859054  21.7695750   8.2670263  25.6358554  29.0760852
   8.1214844  25.9498857  29.9685134   7.7895467  26.2543454  28.5231751
  10.1266646  22.6261102  29.1241742  10.1128215  21.7302195  28.7874040
  10.8439074  22.6331766  29.7580028  11.9792777  23.0598442  31.1694869
  11.7210555  23.9815513  31.1679200  11.4477817  22.6628877  31.8595333
  16.9238966  36.1649229  23.9484955  17.0975843  35.5995652  23.1958807
  17.4167857  36.9650124  23.7664445   2.7415925  28.1763898  32.0148513
   2.1969393  28.9523706  32.1468788   3.6195275  28.5234703  31.8567635
   9.5303542  21.5075482  24.3929312   9.6519453  20.5792128  24.5920199
   9.2405584  21.5214168  23.4807627  12.3994732  19.1930393  27.5296032
  12.4216429  19.2569726  26.5748011  12.8162791  18.3534901  27.7236538
  17.9114138  35.4815994  21.0481853  18.6065043  36.1022686  21.2669167
  18.2537288  34.6311345  21.3234231   3.5281947  27.3033794  34.9078670
   2.7863683  27.4516430  35.4943301   3.2074692  27.5642060  34.0445420
  11.4725610  36.8449773  34.7059060  11.7812736  36.5998919  35.5781760
  12.2701092  37.0496411  34.2177930  11.4946222  38.9987682  26.9364437
  11.0551212  38.5064061  27.6297294  12.2454339  38.4560650  26.6956512
   3.9738561  35.1899223  26.9389065   4.7996581  34.8902995  26.5587708
   3.6232613  34.4206846  27.3878854   8.9420094  34.5425691  29.0086738
   8.3200103  33.8796396  28.7088966   9.6124961  34.5686823  28.3260386
   2.1747166  33.1085550  27.8977998   1.3379074  32.6807724  27.7162000
   2.1470811  33.3017993  28.8348790   9.0144622  23.0207479  38.6019245
   9.0632777  23.8969602  38.2197014   9.5567136  22.4784873  38.0290888
  19.4999467  33.5648603  37.8820382  18.7095011  33.5472742  37.3424881
  19.2632822  34.1036896  38.6369418  19.6197342  30.4141069  35.1953110
  19.6695347  30.2491077  36.1368633  19.5111266  29.5468328  34.8050991
   8.5033601  33.0929615  22.4845199   8.6521721  33.7765079  21.8311872
   9.3100044  33.0734705  22.9994655  16.9101105  26.3971997  36.5112417
  17.8110967  26.2578462  36.2196415  16.9849079  26.5626452  37.4510594
  11.2443910  23.7738852  35.3565603  10.3747219  24.0672418  35.0848192
  11.4803390  24.3579297  36.0772867  21.1215539  32.8338011  35.4395132
  20.8300347  33.1967991  36.2758593  20.5087670  32.1205019  35.2608464
  19.3702727  27.9570625  33.9075190  19.8456849  28.1498272  33.0994041
  18.4468293  28.0129811  33.6618573   6.2586234  29.1194792  23.4906268
   6.0132276  28.2157122  23.6886478   6.4282149  29.1211943  22.5485746
  13.9482944  19.9918469  32.8731024  14.4664888  20.7279496  32.5477512
  13.5938077  20.2982462  33.7077783   5.5281882  24.8523150  20.9892429
   4.8351126  24.9267505  20.3332465   5.2833633  24.0883494  21.5113946
  14.1995538  16.4118751  28.3931920  14.4797292  15.7441940  29.0192347
  14.9846145  16.6047847  27.8806584  12.0029007  35.5877745  19.9556946
  11.4302974  36.2067932  19.5027418  12.5761800  36.1377107  20.4896868
  18.0704396  24.8336385  32.1403495  19.0221819  24.9334483  32.1615719
  17.9007847  24.0414654  32.6501580  16.0918776  21.9191969  32.3262896
  15.4968708  22.1996981  31.6309385  15.8068473  22.4085869  33.0979637
  15.2226266  35.8714895  21.0865529  16.1556939  35.8060457  21.2898404
  15.1349479  36.7071162  20.6280061  17.8514283  35.1880766  18.0469476
  17.7727914  34.8540629  18.9405234  18.6723950  35.6802534  18.0460949
  12.3875805  26.9238558  17.2972999  13.3334910  26.7944766  17.3661417
  12.0090050  26.1853220  17.7742427  18.3597690  18.5894564  27.2599891
  18.1622511  18.2809652  28.1443223  18.9697395  19.3156203  27.3897821
  12.2714498  30.9756304  38.7573656  13.1917507  31.1534903  38.9513702
  12.2364081  30.0312349  38.6053355  10.5718722  24.8488534  17.2327884
   9.6650178  24.5521647  17.3090598  10.8494703  24.5518352  16.3662170
   1.4896663  26.1694898  27.6826931   1.1699447  25.3160206  27.3901305
   0.9430091  26.3843476  28.4384898   5.2676570  28.8857339  31.3996437
   5.4862580  29.8174447  31.4184471   5.6802344  28.5265313  32.1851241
  12.1880788  19.3925424  23.3872125  11.3781516  19.0472509  23.7627372
  12.8765205  19.0832968  23.9759737  14.1171336  18.4703471  25.0096422
  14.6702375  18.8898924  25.6686445  14.3541423  17.5439219  25.0519378
  10.1404435  24.4590545  40.7899186  10.0401162  25.4084901  40.7211277
   9.9225977  24.1308783  39.9175256   9.3417507  21.7075470  17.3739863
  10.2036671  22.0330368  17.6335681   9.5267851  20.9206965  16.8612929
   1.3584923  29.7897809  29.6520052   0.6648394  29.3751762  29.1390007
   2.1057914  29.8318346  29.0553471  17.4950143  20.5803996  24.5175086
  16.9148812  21.2388800  24.1353139  17.2286076  19.7581341  24.1062504
  15.9453710  19.9809054  26.7196407  16.4453488  20.0925588  25.9110726
  16.5889318  19.6770107  27.3597215  10.0035705  27.8887683  39.6064248
   9.5202787  28.6888043  39.8128137  10.0896645  27.8995628  38.6531692
   3.2721665  29.7216063  27.5286067   3.2492353  29.8203750  26.5767950
   3.5822302  30.5681214  27.8503233   5.9309043  31.7792218  31.6432681
   6.8852297  31.7476160  31.5762613   5.7321567  31.3182842  32.4582907
   6.5208425  30.3493334  34.2103479   7.3401314  30.8437413  34.2338316
   6.7945233  29.4325302  34.1821047  16.2775021  22.7404086  23.5731435
  15.3900876  23.0253737  23.3551629  16.6929010  22.5797850  22.7258712
   4.2859272  37.3211838  28.6602879   4.1513740  36.5612238  28.0940877
   3.8691334  38.0452737  28.1931668  15.4218235  32.5048761  17.6679455
  16.1254085  32.7098764  18.2837110  14.6980884  33.0725523  17.9328538
   7.4428398  38.2181155  28.8721322   7.3260782  39.1626587  28.7700012
   6.6220844  37.9154716  29.2607121  17.3304932  32.9431290  19.7177915
  18.1650536  32.5112489  19.5355389  17.1689275  32.7713304  20.6454809
   1.7743339  24.6831468  34.9095676   2.4202203  24.1730422  35.3982901
   1.5660490  25.4200150  35.4839101  14.2996732  31.7512315  40.4087817
  15.1687891  31.9252968  40.0474452  13.8203483  32.5706732  40.2863546
  10.2946950  18.9471513  20.6619572  10.2825620  19.8913353  20.8187843
  11.1870372  18.7641658  20.3679034   8.4682912  38.8709416  32.0877250
   9.3710158  38.9033027  32.4043745   8.2420282  37.9409867  32.1023586
  10.2236514  37.6240403  28.7487329   9.2732145  37.6242265  28.6351701
  10.5269000  36.8773138  28.2323364  14.1099069  15.5414289  24.9165509
  13.3431465  14.9872776  25.0622191  14.5209774  15.6136158  25.7779661
   6.1140830  21.8299085  39.0070690   6.9772292  21.4735890  39.2174015
   5.5406241  21.4912980  39.6946095  25.9589207  43.4600941  29.8133091
  26.5967617  43.3407689  29.1096431  25.8410050  44.4081785  29.8721044
  22.7678914  43.4128370  29.7494616  22.4297425  43.2969434  28.8615151
  23.6368682  43.0119535  29.7295622  18.6265729  45.2663846  25.7391507
  18.0630594  45.1753783  24.9707795  18.5118124  44.4463750  26.2194000
  23.2498697  44.5663221  35.7080822  23.2387337  44.1716020  34.8361325
  23.4119336  43.8329294  36.3014593  16.1730161  46.7615038  28.5775727
  16.9651453  46.4205862  28.1622027  16.4126811  46.8710013  29.4977881
  24.2065288  48.9334814  21.0505972  23.5553268  49.5188894  20.6639986
  25.0009651  49.4641009  21.1101009  18.1320915  46.0223951  21.4493106
  18.9051791  45.4752938  21.3105982  18.4846314  46.8868200  21.6607568
  19.9705958  47.3500333  34.6560006  19.6795824  48.2545964  34.5406672
  20.6062942  47.3916861  35.3704075  20.8962165  44.7277182  31.2461365
  21.4925737  44.5033204  30.5318328  20.9537136  43.9861927  31.8486813
  20.4687193  42.1816617  19.0811556  20.7212714  41.6598138  18.3195019
  19.5311752  42.0182762  19.1838240  25.5130476  41.1852395  26.8886299
  26.2993565  40.7671818  26.5376716  25.7769180  42.0898487  27.0567948
  25.6840553  46.6225246  21.5874956  25.0486386  46.6959872  22.2995861
  25.3537960  47.2118844  20.9094035  30.9138903  41.1227628  27.7919278
  31.6464075  40.5526845  28.0257107  30.1578259  40.7349229  28.2325784
  20.1883482  44.0844723  21.2835931  20.0719740  43.4089626  21.9517015
  20.2985742  43.5977097  20.4668084  22.5315023  43.5454870  24.9882620
  22.1673230  43.0185491  25.6995542  23.3882139  43.1553339  24.8149106
  22.1720510  38.5744770  19.9843969  22.3394912  39.4425006  20.3514440
  21.9817679  38.7372051  19.0605258  24.9295843  47.0361749  31.6509799
  24.6296566  47.9386787  31.5425607  24.5846902  46.7693932  32.5030952
  18.3808324  43.4875545  27.6846504  17.4558821  43.3551760  27.8924195
  18.6292737  44.2669765  28.1816446  22.1509730  41.0302427  20.9690636
  22.0309356  41.4759478  21.8076116  21.4562319  41.3787745  20.4104174
  15.7417135  43.1308819  28.5190293  15.8709516  43.3843298  29.4329704
  15.0614587  43.7236527  28.1994948  22.4033852  40.9733934  37.2742134
  21.6267186  41.5327854  37.2644999  23.0424415  41.4590717  37.7957004
  27.8494797  41.5023900  21.7970970  28.7612653  41.7351287  21.6218667
  27.3404444  42.0860945  21.2346048  20.6580225  43.7819388  36.8360101
  21.3994909  44.3204432  36.5594924  19.9517210  44.4085676  36.9931653
  26.1335564  45.9248528  35.4332262  26.5418920  45.4830939  34.6886895
  25.4112826  45.3501156  35.6866455  26.4564379  46.4849719  29.1884551
  25.8273241  46.6495433  28.4860619  26.0690041  46.8991328  29.9595515
  30.3353611  47.4204157  26.5428915  29.6504649  47.8003058  25.9925948
  30.4197460  48.0299483  27.2760863  27.5904542  45.0664116  33.1424259
  27.8021438  45.7095876  32.4658640  27.5434291  44.2326432  32.6746189
  22.0092341  46.2224127  26.4534636  22.4730686  46.5011830  25.6639259
  21.7449139  45.3207571  26.2707727  18.9016422  45.7695608  29.3914400
  19.4717779  46.1982877  28.7531884  19.4924534  45.4878193  30.0898585
  20.9461227  42.3447279  23.2624201  21.6485270  42.7968323  23.7298128
  20.6141855  41.7031098  23.8904095  19.3941588  40.9359036  37.6375411
  18.7640249  41.6175317  37.8710808  19.2877676  40.8242117  36.6928549
  14.6886561  40.6030832  28.5641335  13.8985615  40.8588360  28.0881446
  15.1797808  41.4179170  28.6693376  28.7050370  47.9436071  31.3146616
  29.5267814  47.5416258  31.0329298  28.7012773  47.8404305  32.2662732
  16.6401306  40.9675411  25.5224812  15.8432469  41.0794105  26.0408307
  16.4126898  41.3062063  24.6565702  22.4706974  47.4920114  33.4707326
  22.5351406  47.9540522  34.3065498  21.7617898  46.8617479  33.5989636
  12.9724264  40.8561322  30.9956326  13.2232302  41.7408332  31.2613902
  13.5083812  40.6765924  30.2231418  36.7956363  44.2874820  27.6631587
  36.0420072  43.7182218  27.5075592  36.9303905  44.2537484  28.6102222
  22.1854991  49.1588222  23.3386307  22.0500666  50.0039758  23.7671155
  22.7264804  49.3607500  22.5752241  18.6722331  35.2379802  40.0000662
  18.2789277  34.6846000  40.6748306  19.4888471  35.5490380  40.3907179
  15.6384389  46.6763660  23.9114232  16.1508909  47.4706910  24.0619796
  16.2907102  45.9789950  23.8447833  17.4479274  49.7929416  25.9936985
  17.6245902  50.7147381  25.8057969  18.2436107  49.4787835  26.4231365
  21.5890292  36.6537681  37.5920918  22.3300005  37.2544834  37.5125381
  21.8208215  35.9115319  37.0338961  16.7331630  41.8394048  35.8699148
  16.6185145  40.9379305  36.1706247  15.8776148  42.0857745  35.5183965
  23.8123468  49.7811788  37.4686649  23.3687322  48.9948167  37.1507553
  24.4740681  49.9690939  36.8030540  18.5710589  51.3107590  31.9947327
  19.1218014  51.1824653  31.2224321  17.7322065  51.6102479  31.6442220
  25.9104706  50.0614588  35.4968050  25.8923181  50.8823469  35.0048319
  26.8324626  49.9368664  35.7218191  22.3677760  47.5758718  36.3391558
  22.9006097  46.8147006  36.1090866  21.8391841  47.2832370  37.0815713
  13.6033306  45.0052314  24.6873802  14.4408528  45.4149323  24.4707510
  13.7811573  44.0651756  24.6573996  25.4997738  42.6727395  20.3757635
  24.9844361  43.4431999  20.6146023  25.2275046  41.9992531  20.9990697
  23.0844849  37.5177096  25.4342874  22.2286445  37.1283946  25.2548512
  23.4971801  37.5969056  24.5742659  20.8586881  35.1362169  28.8400615
  21.7239878  34.9404977  28.4806505  20.9264390  34.9072520  29.7669972
  30.4732012  45.4259750  22.3110809  29.6961455  45.0870909  21.8665971
  31.1523493  45.4312373  21.6365774  25.2884041  40.5454487  22.2017416
  24.9834176  40.8600636  23.0527560  26.2414483  40.6235907  22.2444749
  23.7330473  46.7044710  23.8510370  23.2051834  45.9697470  23.5383608
  23.2317975  47.4819387  23.6050339  28.7123319  44.8993731  28.9677417
  28.0546993  45.5892992  29.0557545  29.5163718  45.2890163  29.3111403
  18.4649200  37.3664377  26.2116982  19.0392952  37.1439558  25.4790175
  19.0520183  37.4353071  26.9645583  27.5228778  43.2538103  27.0181358
  28.0360659  43.8868095  27.5203068  28.1730001  42.6539299  26.6524719
  18.7918787  39.3968838  20.2312867  17.9556100  39.7343524  20.5522142
  18.6523557  39.2617817  19.2940004  20.7671868  34.2405625  24.9392051
  20.1136280  33.9254643  24.3148666  20.7252342  33.6181366  25.6651874
  21.8783073  44.5224921  16.8545343  20.9710135  44.2914174  17.0536492
  22.3754105  43.7262540  17.0419325  24.7851152  53.2322428  19.7742030
  24.1112851  53.5354124  20.3826987  25.1716974  54.0351508  19.4247487
  24.7844656  42.1278975  24.3942379  25.5316475  42.6400372  24.0849501
  25.0536246  41.8063027  25.2546773  23.0571306  44.6237515  21.3769334
  22.1482526  44.3396548  21.4741803  23.0866390  45.0436594  20.5172640
  28.2890574  48.2344105  25.1460501  27.8352901  47.3935015  25.2025692
  27.6584541  48.8705503  25.4835281  26.7323513  50.0720602  26.0810319
  27.0246487  50.6325659  25.3622685  27.2422134  50.3649163  26.8363478
  13.6259477  42.3443030  25.3584536  13.4283877  41.7512390  24.6335602
  13.0706141  42.0395240  26.0760475  21.6056200  42.2366136  27.4779129
  21.6604810  41.2839972  27.4021605  20.7947402  42.3925575  27.9620427
  22.7547394  46.1646259  18.7157412  22.3166824  45.4482118  18.2563049
  23.4957835  46.3922374  18.1542504  19.5448560  40.8543196  25.2369508
  18.7316426  41.1537366  25.6434700  20.0407555  40.4598885  25.9543990
  21.6957138  50.8500953  27.1703772  21.6533317  51.0761799  26.2412304
  22.6119837  50.6164327  27.3189574  30.8720509  44.4403456  24.7733731
  30.7338408  44.6305052  23.8454920  30.5156728  45.2022839  25.2301782
  19.0362635  38.4261551  30.8530743  19.6762014  38.2850310  30.1553706
  18.2040166  38.1396065  30.4769345  30.8989889  46.5079983  29.7845002
  31.3326395  46.4155272  30.6328056  31.6121469  46.4837484  29.1465018
  19.8122939  47.7263982  26.9665735  20.6063538  47.2314302  26.7648310
  19.1014631  47.1981845  26.6033441  24.6317783  50.1082077  31.3178103
  24.6854806  50.6773014  32.0855819  23.7632565  50.2783962  30.9532140
  16.1205702  41.8707063  23.0425488  15.1903291  41.8091519  23.2595450
  16.2163174  41.3483016  22.2462129  16.0391252  38.3961876  25.6303730
  16.2998069  39.3107210  25.5212890  16.8608424  37.9286319  25.7800342
  17.5116177  39.8099633  32.8002554  18.1839230  39.6016996  32.1515203
  16.6845963  39.6121719  32.3607786  31.7605438  46.5503684  32.3177888
  31.9541328  47.4549494  32.5637163  31.6606056  46.0911103  33.1516473
  26.8220547  46.7010427  37.8918768  26.6706053  46.4720978  36.9748852
  26.8125226  47.6581028  37.9050113  22.3894215  48.2993004  30.6463572
  22.2505301  47.9311788  31.5189510  21.6008811  48.8140643  30.4747530
  22.9842367  53.4002100  21.9889109  23.1594123  52.9290143  22.8034731
  22.2975155  54.0267866  22.2170370  23.9399430  47.6774606  28.0352410
  23.6049263  47.6375376  28.9310060  23.4403376  47.0119322  27.5622820
  17.9143674  43.0842236  33.5604991  17.7763472  42.3522475  34.1616530
  18.8248598  42.9951137  33.2789179  26.8758622  45.0230641  18.3089470
  26.2587792  44.2977469  18.2122522  26.4075110  45.7840001  17.9656544
  20.5425975  42.7962196  33.0488671  21.2525593  42.1555388  33.0075289
  20.4995283  43.0475091  33.9714852  28.5312753  49.7329549  35.9695250
  28.4725300  49.0488769  35.3025833  28.9332272  50.4748539  35.5175876
  19.2554909  39.7827414  34.8684310  18.7192266  39.3318152  35.5205907
  18.6671617  39.9173322  34.1254775  18.6657168  39.2416065  17.4310774
  17.7886634  39.1204866  17.0673021  19.1414921  38.4502143  17.1789663
  28.5330161  47.6969133  34.2009230  27.6456939  47.3595055  34.3235629
  29.1028712  46.9652164  34.4377995  10.1859308  44.0293225  27.5252281
  10.8730348  43.7154955  26.9373296  10.0307437  44.9334589  27.2519533
  14.9894030  38.9183421  31.9537305  14.9052219  38.3109091  31.2187715
  14.1676736  39.4092440  31.9546801  22.0631314  52.3570585  31.1670473
  21.9901486  53.1625557  31.6789778  21.6208707  52.5562551  30.3418494
  21.8521094  51.5942355  24.6773295  21.0688616  52.1364036  24.7711519
  22.5513839  52.1116335  25.0767536  33.0147501  43.1077350  28.9625791
  33.0037378  43.9902066  28.5919724  32.1464881  42.7548901  28.7680328
  24.5229998  52.2557419  33.3228632  25.2357970  52.8904884  33.2504533
  24.0320026  52.3521285  32.5068633  26.2447525  46.1608672  24.8945923
  25.3103803  46.2810135  24.7250628  26.4224193  45.2581139  24.6305933
  21.7452713  39.5454368  27.0479184  21.3750500  38.9925408  27.7360090
  22.2411805  38.9412501  26.4954185  29.6320076  42.0025991  25.4295957
  30.0980528  42.8353983  25.3556260  30.0827576  41.5370973  26.1341216
  19.5741911  50.0051863  34.1434202  20.2751371  50.6388346  34.2963597
  19.1037026  50.3466594  33.3829842  27.6996307  48.3469813  22.4282109
  27.9756151  48.2326407  23.3375984  26.8300806  47.9487297  22.3894283
  24.3350371  52.5956163  26.0714923  24.5172766  51.7777819  26.5342675
  25.1583357  52.8123856  25.6339813  24.6692537  51.5224349  23.3329972
  25.1980303  51.0116803  22.7200134  24.9320756  51.2066879  24.1975505
  23.4230770  43.3016281  38.4552790  22.7471407  43.2010411  39.1255165
  24.2458404  43.1455495  38.9188787  15.1709629  49.5388218  31.0765305
  15.7563066  48.7931906  31.2093209  14.9734468  49.8492175  31.9601969
  18.0248284  52.5739465  26.0927748  17.3558660  53.0585593  25.6091788
  17.8861154  52.8208686  27.0071126   9.7627284  42.1093818  29.7969748
   9.8011383  41.5757409  30.5906866   9.2567577  41.5829024  29.1780725
  22.1653553  54.6083209  32.6910406  22.7171861  54.7714830  33.4559491
  22.5059747  55.1987647  32.0190431  17.1418046  36.9558359  33.2932291
  17.2059373  37.8173190  32.8809688  17.0785167  36.3432360  32.5604649
  16.6170319  39.0281491  36.9405325  17.2442358  38.6458568  37.5542849
  15.7598238  38.8095693  37.3061017  27.0164427  49.4344466  38.5459060
  27.5604331  50.0474425  38.0514015  26.4351272  49.9924045  39.0626073
  13.3935862  40.8357920  22.8723680  13.6889303  39.9268599  22.8190733
  12.4923897  40.8145660  22.5504682  25.3021940  52.5565184  29.6774088
  25.1773080  51.7554924  29.1685034  25.9601031  53.0511378  29.1888058
  16.9230109  38.9113917  28.8551228  16.2016694  39.5249885  28.7158702
  17.7123364  39.4471682  28.7767874  27.3656849  50.3574204  31.3053638
  26.4187184  50.2379556  31.2331965  27.7139622  49.4696702  31.3879900
  19.7256422  36.2468343  35.1291880  20.2490824  36.4930640  35.8918189
  19.5068755  37.0788378  34.7095017  15.1223703  38.5172018  22.9963005
  14.7936409  37.6369397  22.8138111  15.4763074  38.4619687  23.8839394
  24.3703282  50.1526921  27.5057990  24.2228244  49.2243628  27.6865560
  25.1956776  50.1747011  27.0215066  18.2365526  38.8044988  23.3638483
  18.5761599  39.3330909  22.6417091  18.6837647  39.1425394  24.1397049
  27.9737404  50.9755479  28.5922863  28.8983951  50.7698341  28.4547314
  27.8052707  50.7271881  29.5012205  20.9308967  37.1882038  32.8141551
  20.5905787  36.3889852  33.2162230  20.2247973  37.4883749  32.2418384
  20.2233673  37.3019609  21.5631775  20.9442036  37.6800862  21.0595492
  19.5998978  38.0208486  21.6666753  24.3664796  38.0064758  22.4990108
  24.5828411  38.8889396  22.1978936  23.8858863  37.6150972  21.7695750
  19.1064018  40.9650472  29.0760852  18.9608598  41.2790775  29.9685134
  18.6289221  41.5835372  28.5231751  20.9660401  37.9553019  29.1241742
  20.9521969  37.0594113  28.7874040  21.6832829  37.9623683  29.7580028
  27.7632720  51.4941147  23.9484955  27.9369598  50.9287569  23.1958807
  28.2561611  52.2942042  23.7664445  13.5809680  43.5055816  32.0148513
  13.0363148  44.2815624  32.1468788  14.4589030  43.8526620  31.8567635
  20.3697297  36.8367400  24.3929312  20.4913208  35.9084046  24.5920199
  20.0799339  36.8506086  23.4807627  33.6172111  44.2577570  25.5675254
  34.0603257  43.5084895  25.1694378  32.7398622  44.2487706  25.1848986
  28.7507893  50.8107911  21.0481853  29.4458797  51.4314604  21.2669167
  29.0931043  49.9603262  21.3234231  14.3675702  42.6325712  34.9078670
  13.6257438  42.7808348  35.4943301  14.0468446  42.8933978  34.0445420
  30.6499316  48.2607617  22.5769184  31.1750640  48.5994890  21.8518504
  30.5621668  47.3254632  22.3932318  22.3119364  52.1741690  34.7059060
  22.6206491  51.9290837  35.5781760  23.1094846  52.3788329  34.2177930
  22.3339976  54.3279600  26.9364437  21.8944967  53.8355979  27.6297294
  23.0848093  53.7852568  26.6956512  14.8132315  50.5191141  26.9389065
  15.6390335  50.2194913  26.5587708  14.4626367  49.7498763  27.3878854
  19.7813849  49.8717609  29.0086738  19.1593858  49.2088314  28.7088966
  20.4518715  49.8978741  28.3260386  13.0140920  48.4377467  27.8977998
  12.1772829  48.0099642  27.7162000  12.9864566  48.6309911  28.8348790
  19.8538376  38.3499397  38.6019245  19.9026532  39.2261520  38.2197014
  20.3960890  37.8076790  38.0290888  30.3393222  48.8940520  37.8820382
  29.5488765  48.8764659  37.3424881  30.1026576  49.4328814  38.6369418
  30.4591097  45.7432987  35.1953110  30.5089102  45.5782994  36.1368633
  30.3505020  44.8760246  34.8050991  19.3427355  48.4221532  22.4845199
  19.4915476  49.1056997  21.8311872  20.1493799  48.4026623  22.9994655
  27.7494859  41.7263915  36.5112417  28.6504722  41.5870380  36.2196415
  27.8242834  41.8918370  37.4510594  31.9609294  48.1629928  35.4395132
  31.6694102  48.5259909  36.2758593  31.3481425  47.4496937  35.2608464
  33.1604976  45.7282808  27.9597702  33.9951867  46.1672612  28.1235262
  33.2964105  45.2521461  27.1405948  30.2096482  43.2862543  33.9075190
  30.6850603  43.4790189  33.0994041  29.2862047  43.3421729  33.6618573
  17.0979988  44.4486710  23.4906268  16.8526030  43.5449040  23.6886478
  17.2675903  44.4503861  22.5485746  16.3675636  40.1815068  20.9892429
  15.6744881  40.2559423  20.3332465  16.1227388  39.4175411  21.5113946
  22.8422761  50.9169663  19.9556946  22.2696728  51.5359850  19.5027418
  23.4155555  51.4669025  20.4896868  26.0620021  51.2006813  21.0865529
  26.9950694  51.1352375  21.2898404  25.9743234  52.0363080  20.6280061
  28.6908037  50.5172683  18.0469476  28.6121669  50.1832547  18.9405234
  29.5117704  51.0094451  18.0460949  31.3886229  43.3834423  31.2545795
  31.3562549  42.4450423  31.4405479  31.9986852  43.4618459  30.5211620
  23.2269559  42.2530476  17.2972999  24.1728664  42.1236684  17.3661417
  22.8483804  41.5145138  17.7742427  31.5380717  40.1745466  31.3004078
  31.0219766  39.3903923  31.1134007  32.4220666  39.8464183  31.4650598
  37.2062778  44.4450430  30.3951832  37.9366167  44.1835718  30.9559535
  36.5969724  43.7079151  30.4353900  35.2878076  42.5858292  30.9926283
  34.5611239  42.4514257  30.3842774  34.8725362  42.8935121  31.7983001
  23.1108252  46.3048222  38.7573656  24.0311262  46.4826821  38.9513702
  23.0757835  45.3604267  38.6053355  21.4112477  40.1780452  17.2327884
  20.5043932  39.8813565  17.3090598  21.6888458  39.8810270  16.3662170
  12.3290417  41.4986815  27.6826931  12.0093201  40.6452124  27.3901305
  11.7823845  41.7135394  28.4384898  16.1070325  44.2149256  31.3996437
  16.3256334  45.1466364  31.4184471  16.5196098  43.8557231  32.1851241
  23.0274542  34.7217342  23.3872125  22.2175271  34.3764427  23.7627372
  23.7158959  34.4124885  23.9759737  24.9565091  33.7995389  25.0096422
  25.5096129  34.2190842  25.6686445  25.1935177  32.8731137  25.0519378
  20.9798190  39.7882462  40.7899186  20.8794917  40.7376819  40.7211277
  20.7619732  39.4600701  39.9175256  20.1811261  37.0367387  17.3739863
  21.0430425  37.3622286  17.6335681  20.3661605  36.2498883  16.8612929
  12.1978677  45.1189727  29.6520052  11.5042148  44.7043680  29.1390007
  12.9451668  45.1610263  29.0553471  20.8429460  43.2179601  39.6064248
  20.3596542  44.0179961  39.8128137  20.9290399  43.2287546  38.6531692
  14.1115420  45.0507981  27.5286067  14.0886108  45.1495668  26.5767950
  14.4216056  45.8973132  27.8503233  16.7702797  47.1084136  31.6432681
  17.7246051  47.0768078  31.5762613  16.5715321  46.6474759  32.4582907
  17.3602180  45.6785252  34.2103479  18.1795069  46.1729330  34.2338316
  17.6338987  44.7617220  34.1821047  27.1168776  38.0696004  23.5731435
  26.2294631  38.3545655  23.3551629  27.5322765  37.9089767  22.7258712
  32.9055871  38.8070144  28.3459714  33.5000361  38.5665880  27.6353023
  32.9782454  38.0877275  28.9733251  26.2611989  47.8340679  17.6679455
  26.9647839  48.0390681  18.2837110  25.5374638  48.4017441  17.9328538
  27.0909800  43.5850540  23.7881725  27.0345001  44.0419091  22.9489357
  27.6438142  42.8241225  23.6104568  30.9014605  39.3740272  24.6131844
  30.6451540  38.9736908  25.4440052  30.2767473  40.0884066  24.4881983
  35.2126943  42.1136345  27.1203136  34.6526501  42.1829534  27.8934698
  34.6070447  41.9377330  26.4002632  28.1698687  48.2723208  19.7177915
  29.0044291  47.8404406  19.5355389  28.0083030  48.1005222  20.6454809
  27.8244579  44.7755321  21.0834254  27.7693383  44.6099593  20.1422698
  27.1990634  45.4831354  21.2396444  12.6137094  40.0123386  34.9095676
  13.2595957  39.5022340  35.3982901  12.4054245  40.7492067  35.4839101
  25.1390486  47.0804233  40.4087817  26.0081646  47.2544885  40.0474452
  24.6597237  47.8998650  40.2863546  21.1340704  34.2763430  20.6619572
  21.1219374  35.2205270  20.8187843  22.0264126  34.0933576  20.3679034
  19.3076666  54.2001334  32.0877250  20.2103913  54.2324944  32.4043745
  19.0814036  53.2701785  32.1023586  21.0630268  52.9532321  28.7487329
  20.1125899  52.9534182  28.6351701  21.3662754  52.2065055  28.2323364
  16.9534585  37.1591003  39.0070690  17.8166046  36.8027808  39.2174015
  16.3799995  36.8204898  39.6946095  36.7982962  58.7892859  29.8133091
  37.4361372  58.6699606  29.1096431  36.6803805  59.7373703  29.8721044
  33.6072668  58.7420287  29.7494616  33.2691180  58.6261352  28.8615151
  34.4762436  58.3411452  29.7295622  31.3080947  57.5108535  19.0811556
  31.5606468  56.9890056  18.3195019  30.3705506  57.3474680  19.1838240
  36.3524230  56.5144313  26.8886299  37.1387319  56.0963736  26.5376716
  36.6162935  57.4190405  27.0567948  41.7532657  56.4519546  27.7919278
  42.4857829  55.8818763  28.0257107  40.9972013  56.0641147  28.2325784
  33.3708777  58.8746788  24.9882620  33.0066984  58.3477409  25.6995542
  34.2275893  58.4845257  24.8149106  39.2758078  50.1641120  32.2513887
  38.9441402  51.0336531  32.0275102  38.6803691  49.8477404  32.9307917
  33.0114264  53.9036687  19.9843969  33.1788666  54.7716924  20.3514440
  32.8211433  54.0663969  19.0605258  39.1686741  54.8836206  29.3307237
  38.2603618  54.8151615  29.0365998  39.1174337  55.3608151  30.1589062
  32.9903485  56.3594345  20.9690636  32.8703110  56.8051396  21.8076116
  32.2956073  56.7079663  20.4104174  33.2427607  56.3025852  37.2742134
  32.4660941  56.8619772  37.2644999  33.8818170  56.7882635  37.7957004
  41.0348387  53.0852645  31.1085111  40.3922768  53.3785178  30.4624905
  40.5303316  52.9705565  31.9138307  38.6888551  56.8315818  21.7970970
  39.6006407  57.0643205  21.6218667  38.1798198  57.4152862  21.2346048
  33.3260389  56.1913053  32.8065819  34.1721584  56.6152466  32.9500468
  33.2659026  55.5346677  33.5004382  36.4759834  53.8517421  34.4646993
  36.2320766  54.6059482  33.9281269  36.7519765  54.2302769  35.2994240
  36.0324526  53.0073854  30.0460831  35.1709005  53.3055108  30.3377568
  36.0586961  53.2244253  29.1141863  31.7854981  57.6739197  23.2624201
  32.4879025  58.1260241  23.7298128  31.4535610  57.0323016  23.8904095
  30.2335343  56.2650954  37.6375411  29.6034003  56.9467234  37.8710808
  30.1271431  56.1534035  36.6928549  25.5280315  55.9322750  28.5641335
  24.7379369  56.1880278  28.0881446  26.0191563  56.7471087  28.6693376
  27.4795061  56.2967329  25.5224812  26.6826224  56.4086023  26.0408307
  27.2520653  56.6353981  24.6565702  29.5116086  50.5671719  40.0000662
  29.1183031  50.0137918  40.6748306  30.3282226  50.8782298  40.3907179
  32.4284047  51.9829598  37.5920918  33.1693760  52.5836752  37.5125381
  32.6601969  51.2407236  37.0338961  36.3741210  48.0110701  31.8685200
  36.0305479  48.9012343  31.7924311  36.7420172  47.8212359  31.0054785
  36.3391492  58.0019313  20.3757635  35.8238116  58.7723917  20.6146023
  36.0668801  57.3284449  20.9990697  33.9238603  52.8469013  25.4342874
  33.0680200  52.4575864  25.2548512  34.3365555  52.9260974  24.5742659
  35.4537750  50.3815357  29.8334433  34.9502545  50.3445492  29.0202239
  35.7468357  51.2908099  29.8931090  31.6980636  50.4654086  28.8400615
  32.5633633  50.2696895  28.4806505  31.7658145  50.2364438  29.7669972
  36.1277795  55.8746405  22.2017416  35.8227931  56.1892554  23.0527560
  37.0808238  55.9527825  22.2444749  29.3042955  52.6956294  26.2116982
  29.8786707  52.4731476  25.4790175  29.8913937  52.7644989  26.9645583
  38.3622532  58.5830021  27.0181358  38.8754414  59.2160013  27.5203068
  39.0123756  57.9831217  26.6524719  29.6312542  54.7260755  20.2312867
  28.7949854  55.0635442  20.5522142  29.4917312  54.5909735  19.2940004
  31.6065623  49.5697543  24.9392051  30.9530035  49.2546560  24.3148666
  31.5646097  48.9473284  25.6651874  34.8403363  56.0579477  29.2639699
  33.9225924  56.2794424  29.1061387  35.2563507  56.1325787  28.4051406
  35.6238411  57.4570892  24.3942379  36.3710230  57.9692290  24.0849501
  35.8930000  57.1354945  25.2546773  38.0717248  54.4928009  26.3761169
  37.3340005  53.9805395  26.7071411  38.3244021  54.0528390  25.5644445
  38.1728875  47.2704261  26.9702938  38.4787752  46.4101624  26.6828853
  38.8981480  47.8621881  26.7701932  32.4449955  57.5658054  27.4779129
  32.4998565  56.6131890  27.4021605  31.6341157  57.7217493  27.9620427
  30.3842315  56.1835113  25.2369508  29.5710180  56.4829284  25.6434700
  30.8801309  55.7890802  25.9543990  35.9816527  56.6476938  34.0684402
  36.3365914  56.8748411  34.9278867  36.6288658  56.9795315  33.4461657
  29.8756390  53.7553469  30.8530743  30.5155769  53.6142228  30.1553706
  29.0433920  53.4687982  30.4769345  26.8785006  53.7253794  25.6303730
  27.1391823  54.6399127  25.5212890  27.7002178  53.2578237  25.7800342
  28.3509931  55.1391551  32.8002554  29.0232985  54.9308913  32.1515203
  27.5239718  54.9413637  32.3607786  34.2535503  51.7653492  34.8168215
  33.6063418  52.4643442  34.7232691  35.0236519  52.1989636  35.1844463
  34.4299638  59.6034257  32.8765035  35.3591698  59.7545417  32.7034002
  34.0090668  59.6918278  32.0213681  31.3819729  58.1254113  33.0488671
  32.0919348  57.4847306  33.0075289  31.3389037  58.3767008  33.9714852
  30.0948663  55.1119331  34.8684310  29.5586020  54.6610070  35.5205907
  29.5065372  55.2465240  34.1254775  29.5050922  54.5707983  17.4310774
  28.6280389  54.4496783  17.0673021  29.9808675  53.7794061  17.1789663
  25.8287784  54.2475339  31.9537305  25.7445973  53.6401009  31.2187715
  25.0070491  54.7384357  31.9546801  36.0011498  52.7328903  27.3207500
  36.4980198  51.9798865  27.0008570  35.2298480  52.7693219  26.7550709
  32.5846467  54.8746286  27.0479184  32.2144255  54.3217326  27.7360090
  33.0805560  54.2704419  26.4954185  40.4713830  57.3317909  25.4295957
  40.9374283  58.1645901  25.3556260  40.9221331  56.8662891  26.1341216
  38.4430493  49.6998496  29.4686859  37.5293573  49.9302723  29.6369066
  38.8723595  49.7836940  30.3200891  38.2136952  57.8888388  31.9686753
  37.5608402  58.1364295  31.3139206  38.5917332  57.0752526  31.6349230
  34.2624525  58.6308199  38.4552790  33.5865162  58.5302328  39.1255165
  35.0852159  58.4747413  38.9188787  27.9811801  52.2850276  33.2932291
  28.0453127  53.1465107  32.8809688  27.9178921  51.6724278  32.5604649
  27.4564073  54.3573409  36.9405325  28.0836112  53.9750486  37.5542849
  26.5991992  54.1387611  37.3061017  27.7623863  54.2405835  28.8551228
  27.0410449  54.8541802  28.7158702  28.5517119  54.7763599  28.7767874
  30.5650177  51.5760261  35.1291880  31.0884578  51.8222558  35.8918189
  30.3462510  52.4080296  34.7095017  25.9617458  53.8463936  22.9963005
  25.6330164  52.9661315  22.8138111  26.3156828  53.7911604  23.8839394
  29.0759281  54.1336905  23.3638483  29.4155353  54.6622827  22.6417091
  29.5231401  54.4717312  24.1397049  31.7702722  52.5173956  32.8141551
  31.4299542  51.7181769  33.2162230  31.0641728  52.8175667  32.2418384
  32.4219193  49.6023269  31.2668874  33.2445263  49.1283747  31.1447764
  32.6657257  50.3813752  31.7667560  31.0627428  52.6311527  21.5631775
  31.7835790  53.0092780  21.0595492  30.4392732  53.3500404  21.6666753
  35.2058551  53.3356676  22.4990108  35.4222165  54.2181314  22.1978936
  34.7252618  52.9442889  21.7695750  29.9457772  56.2942389  29.0760852
  29.8002353  56.6082692  29.9685134  29.4682976  56.9127290  28.5231751
  31.8054155  53.2844937  29.1241742  31.7915724  52.3886030  28.7874040
  32.5226583  53.2915601  29.7580028  33.6580286  53.7182277  31.1694869
  33.3998064  54.6399348  31.1679200  33.1265326  53.3212712  31.8595333
  31.2091051  52.1659317  24.3929312  31.3306962  51.2375964  24.5920199
  30.9193093  52.1798003  23.4807627  34.0782241  49.8514228  27.5296032
  34.1003938  49.9153561  26.5748011  34.4950300  49.0118737  27.7236538
  30.6932131  53.6791315  38.6019245  30.7420286  54.5553438  38.2197014
  31.2354645  53.1368708  38.0290888  38.5888614  57.0555832  36.5112417
  39.4898476  56.9162297  36.2196415  38.6636588  57.2210287  37.4510594
  32.9231419  54.4322687  35.3565603  32.0534728  54.7256253  35.0848192
  33.1590899  55.0163132  36.0772867  35.6270453  50.6502304  32.8731024
  36.1452397  51.3863331  32.5477512  35.2725586  50.9566297  33.7077783
  27.2069390  55.5106985  20.9892429  26.5138635  55.5851340  20.3332465
  26.9621142  54.7467329  21.5113946  35.8783047  47.0702587  28.3931920
  36.1584801  46.4025776  29.0192347  36.6633654  47.2631682  27.8806584
  39.7491905  55.4920221  32.1403495  40.7009328  55.5918318  32.1615719
  39.5795356  54.6998489  32.6501580  37.7706285  52.5775804  32.3262896
  37.1756217  52.8580817  31.6309385  37.4855982  53.0669705  33.0979637
  34.0663314  57.5822393  17.2972999  35.0122419  57.4528601  17.3661417
  33.6877559  56.8437055  17.7742427  42.3774472  55.5037384  31.3004078
  41.8613520  54.7195840  31.1134007  43.2614420  55.1756100  31.4650598
  40.0385199  49.2478399  27.2599891  39.8410020  48.9393488  28.1443223
  40.6484904  49.9740038  27.3897821  32.2506231  55.5072370  17.2327884
  31.3437687  55.2105482  17.3090598  32.5282212  55.2102188  16.3662170
  33.8668297  50.0509259  23.3872125  33.0569025  49.7056344  23.7627372
  34.5552714  49.7416803  23.9759737  35.7958845  49.1287306  25.0096422
  36.3489884  49.5482760  25.6686445  36.0328932  48.2023054  25.0519378
  31.8191944  55.1174380  40.7899186  31.7188671  56.0668737  40.7211277
  31.6013486  54.7892619  39.9175256  31.0205016  52.3659305  17.3739863
  31.8824180  52.6914203  17.6335681  31.2055360  51.5790801  16.8612929
  39.1737652  51.2387831  24.5175086  38.5936321  51.8972635  24.1353139
  38.9073585  50.4165176  24.1062504  37.6241219  50.6392889  26.7196407
  38.1240997  50.7509424  25.9110726  38.2676827  50.3353942  27.3597215
  37.9562530  53.3987922  23.5731435  37.0688385  53.6837572  23.3551629
  38.3716519  53.2381685  22.7258712  41.3077066  53.4234443  27.2885774
  42.0837457  53.9130895  27.5610391  40.5825201  53.8492497  27.7457643
  43.7449625  54.1362062  28.3459714  44.3394116  53.8957798  27.6353023
  43.8176209  53.4169193  28.9733251  37.9303554  58.9142458  23.7881725
  37.8738755  59.3711009  22.9489357  38.4831896  58.1533142  23.6104568
  41.7408360  54.7032190  24.6131844  41.4845294  54.3028825  25.4440052
  41.1161228  55.4175984  24.4881983  31.9734459  49.6055348  20.6619572
  31.9613129  50.5497188  20.8187843  32.8657881  49.4225493  20.3679034
  35.7886578  46.1998125  24.9165509  35.0218974  45.6456611  25.0622191
  36.1997283  46.2719993  25.7779661  27.7928339  52.4882920  39.0070690
  28.6559801  52.1319725  39.2174015  27.2193750  52.1496815  39.6946095
  15.1195454   5.1371146  16.5378398  15.7573864   5.0177894  15.8341738
  15.0016297   6.0851990  16.5966350  11.9285160   5.0898574  16.4739923
  11.5903672   4.9739639  15.5860458  12.7974928   4.6889740  16.4540929
  12.4104943   6.2433426  22.4326128  12.3993584   5.8486224  21.5606632
  12.5725583   5.5099499  23.0259900   9.1312204   9.0270538  21.3805312
   8.8402070   9.9316169  21.2651979   9.7669189   9.0687066  22.0949382
  10.0568411   6.4047386  17.9706672  10.6531984   6.1803409  17.2563635
  10.1143383   5.6632132  18.5732120  20.0745150   2.7997833  14.5164585
  20.8070322   2.2297050  14.7502414  19.3184505   2.4119434  14.9571090
  14.0902090   8.7131953  18.3755106  13.7902813   9.6156992  18.2670913
  13.7453149   8.4464137  19.2276259  17.4899233   1.2314494  16.0552543
  16.5816111   1.1629902  15.7611304  17.4386829   1.7086439  16.8834369
   9.0722869  15.4776274  11.3426074   8.9946899  16.4284099  11.4214554
   8.4684513  15.1322146  12.0001000  11.5640099   2.6504139  23.9987441
  10.7873433   3.2098059  23.9890305  12.2030662   3.1360922  24.5202311
  19.3560880  -0.5669068  17.8330417  18.7135260  -0.2736535  17.1870212
  18.8515808  -0.6816148  18.6383614   9.8186471   5.4589593  23.5605408
  10.5601156   5.9974637  23.2840231   9.1123457   6.0855881  23.7176959
  15.2941811   7.6018733  22.1577569  15.7025167   7.1601144  21.4132201
  14.5719073   7.0271361  22.4111762  11.6472881   2.5391340  19.5311126
  12.4934076   2.9630753  19.6745775  11.5871519   1.8824964  20.2249689
  15.6170626   8.1619924  15.9129858  14.9879488   8.3265638  15.2105926
  15.2296288   8.5761533  16.6840822  19.4959858   9.0974362  13.2674222
  18.8110896   9.4773263  12.7171255  19.5803707   9.7069688  14.0006169
  14.7972326   0.1995708  21.1892300  14.5533258   0.9537769  20.6526575
  15.0732257   0.5781056  22.0239547  16.7510789   6.7434321  19.8669565
  16.9627684   7.3866080  19.1903946  16.7040537   5.9096637  19.3991495
   8.0622669   7.4465813  16.1159706   8.6324026   7.8753082  15.4777191
   8.6530780   7.1648398  16.8143892  17.8656617   9.6206276  18.0391923
  18.6874061   9.2186463  17.7574604  17.8619020   9.5174510  18.9908038
  11.6313221   9.1690319  20.1952633  11.6957653   9.6310727  21.0310805
  10.9224144   8.5387684  20.3234943  25.9562610   5.9645024  14.3876894
  25.2026319   5.3952423  14.2320898  26.0910151   5.9307689  15.3347529
  12.9729715  11.4581993  24.1931955  12.5293569  10.6718372  23.8752860
  13.6346928  11.6461144  23.5275846   7.7316836  12.9877795  18.7192634
   8.2824261  12.8594858  17.9469628   6.8928312  13.2872684  18.3687527
  15.0710953  11.7384793  22.2213357  15.0529428  12.5593674  21.7293626
  15.9930873  11.6138868  22.4463498  11.5284007   9.2528923  23.0636865
  12.0612344   8.4917211  22.8336173  10.9998088   8.9602575  23.8061020
  17.8729566   6.5763936  15.6922723  17.2153240   7.2663197  15.7802852
  18.6769965   6.9660368  16.0356710  16.6835024   4.9308308  13.7426665
  17.1966906   5.5638300  14.2448375  17.3336248   4.3309504  13.3770025
  17.4496821   9.9114310  11.8705808  16.9959148   9.0705220  11.9270998
  16.8190787  10.5475708  12.2080588  15.8929760  11.7490807  12.8055626
  16.1852734  12.3095864  12.0867992  16.4028380  12.0419368  13.5608785
  10.8563385  12.5271158  13.8949079  10.8139564  12.7532004  12.9657611
  11.7726084  12.2934532  14.0434880  14.3029019   2.9955225  20.7929708
  14.6578407   3.2226698  21.6524174  14.9501150   3.3273602  20.1706964
  20.0326756   6.1173661  11.4979037  19.8944654   6.3075257  10.5700227
  19.6762975   6.8793044  11.9547088  20.0596135   8.1850188  16.5090309
  20.4932642   8.0925477  17.3573363  20.7727716   8.1607689  15.8710325
  13.7924030  11.7852282  18.0423409  13.8461053  12.3543218  18.8101125
  12.9238812  11.9554167  17.6777447  20.9211685   8.2273889  19.0423194
  21.1147575   9.1319699  19.2882469  20.8212303   7.7681308  19.8761779
  15.9826794   8.3780631  24.6164075  15.8312300   8.1491183  23.6994159
  15.9731473   9.3351233  24.6295420  12.7512130   5.9512544  19.6010341
  13.6804190   6.1023704  19.4279309  12.3303160   6.0396565  18.7458988
  11.5500462   9.9763209  17.3708879  11.4111547   9.6081993  18.2434817
  10.7615058  10.4910848  17.1992837  12.1448614  15.0772305   8.7134415
  12.3200369  14.6060348   9.5280038  11.4581402  15.7038071   8.9415676
  13.1005677   9.3544811  14.7597717  12.7655510   9.3145581  15.6555367
  12.6009623   8.6889527  14.2868127   9.7032222   4.4732401  19.7733978
  10.4131840   3.8325593  19.7320596   9.6601530   4.7245296  20.6960158
  17.6919000  11.4099754  22.6940557  17.6331546  10.7258974  22.0271140
  18.0938519  12.1518744  22.2421183   6.7109699  18.2261668  15.4874276
   6.9506297  18.8580192  16.1653294   5.8678896  17.8749708  15.7739635
  17.6936408   9.3739338  20.9254536  16.8063186   9.0365260  21.0480935
  18.2634959   8.6422369  21.1623302  11.2237561  14.0340790  17.8915780
  11.1507732  14.8395762  18.4035084  10.7814954  14.2332756  17.0663801
  11.0127341  13.2712560  11.4018601  10.2294862  13.8134240  11.4956826
  11.7120086  13.7886540  11.8012842  22.1753748   4.7847555  15.6871098
  22.1643624   5.6672271  15.3165031  21.3071127   4.4319106  15.4925635
  13.6836244  13.9327624  20.0473938  14.3964217  14.5675089  19.9749840
  13.1926273  14.0291490  19.2313940   8.7348158  11.6822068  20.8679509
   9.4357617  12.3158551  21.0208903   8.2643273  12.0236799  20.1075148
  16.5349444   4.2366675  18.6932059  15.8820894   4.4842583  18.0384512
  16.9129824   3.4230813  18.3594537  13.4956618  14.2726368  12.7960230
  13.6779012  13.4548024  13.2587982  14.3189604  14.4894061  12.3585120
  13.8298783  13.1994554  10.0575278  14.3586550  12.6887008   9.4445440
  14.0927003  12.8837084  10.9220811  12.5837017   4.9786486  25.1798097
  11.9077654   4.8780616  25.8500472  13.4064651   4.8225700  25.6434094
   4.3315876  11.2158423  17.8010612   4.9169313  10.4702111  17.9338516
   4.1340714  11.5262380  18.6847276   7.1854531  14.2509670  12.8173054
   6.5164906  14.7355798  12.3337094   7.0467401  14.4978891  13.7316433
  11.3259800  16.2853414  19.4155713  11.8778108  16.4485035  20.1804798
  11.6665993  16.8757852  18.7435737  16.1770674  11.1114671  25.2704367
  16.7210578  11.7244630  24.7759322  15.5957519  11.6694250  25.7871380
  14.4628187  14.2335389  16.4019395  14.3379327  13.4325129  15.8930340
  15.1207278  14.7281583  15.9133365  16.5263095  12.0344409  18.0298945
  15.5793431  11.9149761  17.9577271  16.8745869  11.1466907  18.1125206
  13.5309529  11.8297126  14.2303297  13.3834491  10.9013833  14.4110867
  14.3563022  11.8517216  13.7460372  17.1343651  12.6525684  15.3168170
  18.0590198  12.4468546  15.1792621  16.9658954  12.4042085  16.2257511
  16.9238967  13.1711352  10.6730261  17.0975844  12.6057774   9.9204114
  17.4167858  13.9712247  10.4909751  22.7778358   5.9347775  12.2920561
  23.2209504   5.1855100  11.8939684  21.9004868   5.9257911  11.9094293
  19.8105562   9.9377822   9.3014490  20.3356887  10.2765094   8.5763810
  19.7227915   9.0024837   9.1177625  11.4725611  13.8511895  21.4304367
  11.7812738  13.6061042  22.3027066  12.2701093  14.0558534  20.9423237
  11.4946223  16.0049805  13.6609743  11.0551213  15.5126184  14.3542600
  12.2454340  15.4622773  13.4201819   8.9420095  11.5487814  15.7332045
   8.3200105  10.8858519  15.4334273   9.6124962  11.5748946  15.0505693
  19.4999469  10.5710725  24.6065688  18.7095012  10.5534864  24.0670188
  19.2632823  11.1099019  25.3614725  19.6197344   7.4203192  21.9198417
  19.6695348   7.2553199  22.8613940  19.5111267   6.5530451  21.5296298
  16.9101106   3.4034120  23.2357723  17.8110969   3.2640585  22.9441721
  16.9849080   3.5688575  24.1755901  21.1215540   9.8400133  22.1640438
  20.8300349  10.2030114  23.0003899  20.5087672   9.1267141  21.9853770
  22.3211223   7.4053013  14.6843009  23.1558114   7.8442817  14.8480569
  22.4570351   6.9291666  13.8651254  19.3702729   4.9632748  20.6320496
  19.8456850   5.1560394  19.8239348  18.4468294   5.0191934  20.3863880
  18.0704398   1.8398508  18.8648802  19.0221821   1.9396606  18.8861026
  17.9007848   1.0476776  19.3746886  16.0918777  -1.0745909  19.0508203
  15.4968709  -0.7940896  18.3554691  15.8068474  -0.5852008  19.8224944
  20.5492475   5.0604628  17.9791102  20.5168796   4.1220628  18.1650785
  21.1593099   5.1388664  17.2456926  20.6986964   1.8515671  18.0249385
  20.1826013   1.0674128  17.8379314  21.5826912   1.5234388  18.1895904
  26.3669025   6.1220634  17.1197138  27.0972414   5.8605923  17.6804842
  25.7575971   5.3849356  17.1599206  24.4484322   4.2628497  17.7171590
  23.7217486   4.1284462  17.1088081  24.0331609   4.5705326  18.5228308
  12.2714499   7.9818427  25.4818963  13.1917508   8.1597026  25.6759009
  12.2364082   7.0374472  25.3298662   5.2676571   5.8919461  18.1241744
   5.4862581   6.8236569  18.1429778   5.6802345   5.5327436  18.9096548
  10.0035707   4.8949806  26.3309554   9.5202788   5.6950166  26.5373443
  10.0896646   4.9057751  25.3776998   5.9309044   8.7854341  18.3677988
   6.8852298   8.7538283  18.3007920   5.7321568   8.3244964  19.1828214
   6.5208426   7.3555457  20.9348786   7.3401315   7.8499535  20.9583623
   6.7945234   6.4387425  20.9066353  22.0662117   0.4840349  15.0705021
  22.6606608   0.2436085  14.3598329  22.1388701  -0.2352520  15.6978557
   4.2859273  14.3273960  15.3848186   4.1513741  13.5674361  14.8186184
   3.8691335  15.0514860  14.9176975  24.3733190   3.7906550  13.8448442
  23.8132748   3.8599739  14.6180004  23.7676693   3.6147535  13.1247939
   7.4428399  15.2243277  15.5966629   7.3260783  16.1688710  15.4945319
   6.6220845  14.9216839  15.9852428  14.2996733   8.7574438  27.1333123
  15.1687892   8.9315090  26.7719758  13.8203484   9.5768855  27.0108853
   8.4682913  15.8771539  18.8122557   9.3710160  15.9095149  19.1289052
   8.2420283  14.9471990  18.8268893  10.2236515  14.6302526  15.4732636
   9.2732146  14.6304387  15.3597008  10.5269001  13.8835260  14.9568670
  25.9589209  20.4663064  16.5378398  26.5967618  20.3469811  15.8341738
  25.8410051  21.4143908  16.5966350  22.7678915  20.4190492  16.4739923
  22.4297426  20.3031557  15.5860458  23.6368683  20.0181657  16.4540929
  18.6265730  22.2725969  12.4636814  18.0630596  22.1815905  11.6953101
  18.5118126  21.4525873  12.9439306  16.1730162  23.7677160  15.3021034
  16.9651454  23.4267985  14.8867333  16.4126813  23.8772135  16.2223187
  24.2065289  25.9396936   7.7751279  23.5553269  26.5251017   7.3885292
  25.0009652  26.4703131   7.8346316  18.1320916  23.0286073   8.1738413
  18.9051792  22.4815060   8.0351289  18.4846315  23.8930323   8.3852874
  20.8962166  21.7339304  17.9706672  21.4925738  21.5095327  17.2563635
  20.9537137  20.9924050  18.5732120  20.4687194  19.1878740   5.8056863
  20.7212715  18.6660261   5.0440326  19.5311753  19.0244885   5.9083546
  25.5130477  18.1914518  13.6131606  26.2993566  17.7733941  13.2622023
  25.7769181  19.0960610  13.7813254  25.6840554  23.6287368   8.3120263
  25.0486387  23.7021995   9.0241168  25.3537961  24.2180967   7.6339342
  30.9138904  18.1289751  14.5164585  31.6464076  17.5588968  14.7502414
  30.1578260  17.7411352  14.9571090  20.1883483  21.0906845   8.0081238
  20.0719741  20.4151749   8.6762322  20.2985743  20.6039219   7.1913391
  22.5315024  20.5516993  11.7127927  22.1673231  20.0247614  12.4240849
  23.3882140  20.1615462  11.5394412  28.4364324  11.8411325  18.9759193
  28.1047649  12.7106736  18.7520408  27.8409938  11.5247609  19.6553224
  22.1720511  15.5806892   6.7089276  22.3394913  16.4487129   7.0759747
  21.9817680  15.7434174   5.7850565  24.9295844  24.0423871  18.3755106
  24.6296567  24.9448910  18.2670913  24.5846904  23.7756054  19.2276259
  18.3808325  20.4937668  14.4091810  17.4558822  20.3613882  14.6169502
  18.6292739  21.2731887  14.9061753  28.3292988  16.5606411  16.0552543
  27.4209865  16.4921820  15.7611304  28.2780584  17.0378356  16.8834369
  22.1509732  18.0364550   7.6935942  22.0309357  18.4821601   8.5321423
  21.4562320  18.3849867   7.1349481  15.7417137  20.1370942  15.2435599
  15.8709518  20.3905420  16.1575011  15.0614588  20.7298650  14.9240254
  19.9116624  30.8068192  11.3426074  19.8340653  31.7576017  11.4214554
  19.3078267  30.4614064  12.0001000  30.1954634  14.7622850  17.8330417
  29.5529014  15.0555383  17.1870212  29.6909563  14.6475770  18.6383614
  27.8494798  18.5086023   8.5216276  28.7612654  18.7413410   8.3463974
  27.3404445  19.0923067   7.9591355  26.4564380  23.4911841  15.9129858
  25.8273243  23.6557556  15.2105926  26.0690042  23.9053451  16.6840822
  30.3353612  24.4266279  13.2674222  29.6504650  24.8065181  12.7171255
  30.4197461  25.0361606  14.0006169  25.6366081  15.5287626  21.1892300
  25.3927013  16.2829686  20.6526575  25.9126011  15.9072973  22.0239547
  27.5904544  22.0726238  19.8669565  27.8021439  22.7157998  19.1903946
  27.5434292  21.2388555  19.3991495  25.1930773  14.6844059  16.7706137
  24.3315252  14.9825312  17.0622875  25.2193207  14.9014458  15.8387170
  22.0092342  23.2286249  13.1779943  22.4730688  23.5073952  12.3884565
  21.7449140  22.3269694  12.9953034  18.9016423  22.7757731  16.1159706
  19.4717780  23.2044999  15.4777191  19.4924535  22.4940316  16.8143892
  20.9461228  19.3509402   9.9869508  21.6485271  19.8030446  10.4543434
  20.6141857  18.7093221  10.6149401  19.3941590  17.9421158  24.3620718
  18.7640250  18.6237439  24.5956114  19.2877678  17.8304240  23.4173856
  14.6886562  17.6092955  15.2886642  13.8985616  17.8650483  14.8126752
  15.1797809  18.4241292  15.3938682  28.7050372  24.9498194  18.0391923
  29.5267815  24.5478381  17.7574604  28.7012774  24.8466428  18.9908038
  16.6401307  17.9737534  12.2470118  15.8432471  18.0856228  12.7653614
  16.4126900  18.3124186  11.3811009  12.9724265  17.8623445  17.7201632
  13.2232303  18.7470455  17.9859208  13.5083813  17.6828046  16.9476724
  36.7956365  21.2936942  14.3876894  36.0420073  20.7244340  14.2320898
  36.9303906  21.2599607  15.3347529  22.1854993  26.1650344  10.0631613
  22.0500668  27.0101880  10.4916461  22.7264805  26.3669622   9.2997547
  18.6722332  12.2441924  26.7245969  18.2789278  11.6908123  27.3993613
  19.4888473  12.5552503  27.1152486  15.6384390  23.6825783  10.6359538
  16.1508911  24.4769033  10.7865103  16.2907103  22.9852073  10.5693140
  17.4479275  26.7991539  12.7182292  17.6245903  27.7209503  12.5303275
  18.2436108  26.4849958  13.1476671  21.5890293  13.6599803  24.3166225
  22.3300007  14.2606957  24.2370688  21.8208216  12.9177441  23.7584268
  16.7331631  18.8456171  22.5944455  16.6185146  17.9441428  22.8951554
  15.8776149  19.0919867  22.2429271  18.5710590  28.3169713  18.7192634
  19.1218015  28.1886776  17.9469628  17.7322066  28.6164602  18.3687527
  25.5347456   9.6880906  18.5930507  25.1911726  10.5782548  18.5169617
  25.9026419   9.4982564  17.7300092  13.6033307  22.0114437  11.4119109
  14.4408529  22.4211445  11.1952817  13.7811575  21.0713879  11.3819303
  25.4997739  19.6789517   7.1002942  24.9844362  20.4494122   7.3391329
  25.2275047  19.0054654   7.7236003  23.0844850  14.5239218  12.1588180
  22.2286446  14.1346069  11.9793819  23.4971802  14.6031179  11.2987966
  24.6143997  12.0585562  16.5579740  24.1108792  12.0215697  15.7447545
  24.9074604  12.9678304  16.6176397  20.8586883  12.1424291  15.5645922
  21.7239879  11.9467100  15.2051811  20.9264391  11.9134643  16.4915279
  30.4732013  22.4321872   9.0356115  29.6961456  22.0933032   8.5911277
  31.1523494  22.4374495   8.3611080  25.2884042  17.5516610   8.9262723
  24.9834178  17.8662759   9.7772866  26.2414484  17.6298029   8.9690056
  23.7330474  23.7106833  10.5755677  23.2051836  22.9759592  10.2628915
  23.2317977  24.4881509  10.3295645  28.7123320  21.9055853  15.6922723
  28.0546994  22.5955115  15.7802852  29.5163719  22.2952285  16.0356710
  18.4649202  14.3726499  12.9362289  19.0392954  14.1501681  12.2035482
  19.0520184  14.4415194  13.6890890  27.5228779  20.2600226  13.7426665
  28.0360661  20.8930218  14.2448375  28.1730003  19.6601422  13.3770025
  18.7918789  16.4030960   6.9558174  17.9556101  16.7405647   7.2767449
  18.6523558  16.2679940   6.0185311  20.7671869  11.2467748  11.6637358
  20.1136282  10.9316765  11.0393973  20.7252343  10.6243489  12.3897181
  21.8783074  21.5287043   3.5790650  20.9710136  21.2976297   3.7781799
  22.3754106  20.7324662   3.7664632  24.7851153  30.2384550   6.4987336
  24.1112852  30.5416247   7.1072294  25.1716975  31.0413631   6.1492793
  24.0009610  17.7349682  15.9885006  23.0832171  17.9564629  15.8306694
  24.4169753  17.8095992  15.1296713  24.7844657  19.1341097  11.1187686
  25.5316476  19.6462494  10.8094808  25.0536247  18.8125150  11.9792079
  23.0571308  21.6299638   8.1014640  22.1482527  21.3458671   8.1987110
  23.0866391  22.0498717   7.2417947  28.2890575  25.2406227  11.8705808
  27.8352902  24.3997137  11.9270998  27.6584542  25.8767626  12.2080588
  27.2323495  16.1698214  13.1006475  26.4946251  15.6575600  13.4316718
  27.4850268  15.7298595  12.2889752  26.7323514  27.0782724  12.8055626
  27.0246489  27.6387781  12.0867992  27.2422135  27.3711285  13.5608785
  27.3335122   8.9474466  13.6948244  27.6393999   8.0871829  13.4074160
  28.0587727   9.5392086  13.4947238  13.6259478  19.3505152  12.0829842
  13.4283878  18.7574513  11.3580909  13.0706142  19.0457362  12.8005781
  21.6056202  19.2428259  14.2024436  21.6604811  18.2902095  14.1266912
  20.7947404  19.3987698  14.6865734  22.7547395  23.1708382   5.4402719
  22.3166825  22.4544241   4.9808356  23.4957836  23.3984496   4.8787810
  19.5448562  17.8605318  11.9614814  18.7316427  18.1599489  12.3680007
  20.0407556  17.4661007  12.6789297  21.6957139  27.8563075  13.8949079
  21.6533318  28.0823922  12.9657611  22.6119838  27.6226450  14.0434880
  30.8720510  21.4465579  11.4979037  30.7338409  21.6367175  10.5700227
  30.5156729  22.2084962  11.9547088  19.0362636  15.4323674  17.5776049
  19.6762016  15.2912433  16.8799013  18.2040167  15.1458187  17.2014651
  30.8989890  23.5142106  16.5090309  31.3326397  23.4217395  17.3573363
  31.6121471  23.4899606  15.8710325  19.8122940  24.7326104  13.6911042
  20.6063539  24.2376424  13.4893617  19.1014633  24.2043967  13.3278747
  16.1205704  18.8769186   9.7670795  15.1903292  18.8153642   9.9840757
  16.2163176  18.3545139   8.9707436  16.0391253  15.4023999  12.3549036
  16.2998070  16.3169332  12.2458197  16.8608425  14.9348441  12.5045649
  17.5116178  16.8161756  19.5247861  18.1839232  16.6079118  18.8760510
  16.6845965  16.6183842  19.0853093  23.4141750  13.4423697  21.5413522
  22.7669665  14.1413647  21.4477998  24.1842766  13.8759841  21.9089770
  22.9842368  30.4064223   8.7134415  23.1594124  29.9352266   9.5280038
  22.2975156  31.0329989   8.9415676  23.9399431  24.6836729  14.7597717
  23.6049264  24.6437499  15.6555367  23.4403377  24.0181445  14.2868127
  17.9143675  20.0904359  20.2850298  17.7763473  19.3584598  20.8861837
  18.8248599  20.0013259  20.0034486  26.8758623  22.0292763   5.0334776
  26.2587794  21.3039591   4.9367829  26.4075112  22.7902124   4.6901851
  19.2554910  16.7889536  21.5929617  18.7192267  16.3380275  22.2451213
  18.6671618  16.9235445  20.8500081  17.5503454  33.5553586  15.4874276
  17.7900052  34.1872110  16.1653294  16.7072650  33.2041626  15.7739635
  10.1859309  21.0355347  14.2497588  10.8730349  20.7217077  13.6618603
  10.0307438  21.9396712  13.9764839  14.9894031  15.9245544  18.6782611
  14.9052220  15.3171213  17.9433021  14.1676738  16.4154562  18.6792108
  22.0631315  29.3632708  17.8915780  21.9901487  30.1687679  18.4035084
  21.6208708  29.5624674  17.0663801  21.8521095  28.6004478  11.4018601
  21.0688617  29.1426158  11.4956826  22.5513840  29.1178458  11.8012842
  25.1617745  14.4099107  14.0452807  25.6586445  13.6569070  13.7253877
  24.3904727  14.4463424  13.4796016  33.0147503  20.1139473  15.6871098
  33.0037379  20.9964188  15.3165031  32.1464882  19.7611024  15.4925635
  26.2447526  23.1670795  11.6191230  25.3103805  23.2872257  11.4495934
  26.4224194  22.2643261  11.3551240  21.7452714  16.5516490  13.7724491
  21.3750501  15.9987531  14.4605397  22.2411806  15.9474624  13.2199491
  29.6320077  19.0088114  12.1541264  30.0980529  19.8416106  12.0801567
  30.0827578  18.5433096  12.8586523  27.6996308  25.3531935   9.1527416
  27.9756152  25.2388530  10.0621290  26.8300807  24.9549420   9.1139589
  27.6036740  11.3768701  16.1932165  26.6899820  11.6072928  16.3614372
  28.0329841  11.4607145  17.0446198  27.3743198  19.5658593  18.6932059
  26.7214649  19.8134500  18.0384512  27.7523578  18.7522731  18.3594537
  24.3350372  29.6018286  12.7960230  24.5172767  28.7839942  13.2587982
  25.1583358  29.8185978  12.3585120  15.1709630  26.5450340  17.8010612
  15.7563067  25.7994028  17.9338516  14.9734469  26.8554297  18.6847276
  18.0248286  29.5801588  12.8173054  17.3558661  30.0647716  12.3337094
  17.8861155  29.8270808  13.7316433   9.7627285  19.1155941  16.5215055
   9.8011385  18.5819531  17.3152173   9.2567578  18.5891146  15.9026032
  22.1653554  31.6145331  19.4155713  22.7171862  31.7776953  20.1804798
  22.5059748  32.2049769  18.7435737  17.1418048  13.9620481  20.0177597
  17.2059374  14.8235312  19.6054995  17.0785168  13.3494483  19.2849956
  16.6170320  16.0343614  23.6650631  17.2442359  15.6520691  24.2788156
  15.7598239  15.8157816  24.0306324  13.3935863  17.8420043   9.5968986
  13.6889304  16.9330721   9.5436040  12.4923899  17.8207782   9.2749989
  25.3021942  29.5627307  16.4019395  25.1773081  28.7617047  15.8930340
  25.9601033  30.0573500  15.9133365  16.9230110  15.9176039  15.5796535
  16.2016696  16.5312007  15.4404008  17.7123366  16.4533804  15.5013181
  27.3656850  27.3636327  18.0298945  26.4187185  27.2441678  17.9577271
  27.7139623  26.4758825  18.1125206  19.7256423  13.2530466  21.8537187
  20.2490825  13.4992762  22.6163496  19.5068757  14.0850501  21.4340324
  15.1223704  15.5234141   9.7208311  14.7936411  14.6431519   9.5383417
  15.4763075  15.4681809  10.6084701  24.3703283  27.1589043  14.2303297
  24.2228246  26.2305751  14.4110867  25.1956777  27.1809134  13.7460372
  18.2365528  15.8107110  10.0883789  18.5761600  16.3393032   9.3662397
  18.6837648  16.1487516  10.8642356  27.9737405  27.9817602  15.3168170
  28.8983953  27.7760463  15.1792621  27.8052708  27.7334003  16.2257511
  20.9308968  14.1944161  19.5386857  20.5905789  13.3951974  19.9407537
  20.2247975  14.4945872  18.9663690  21.5825440  11.2793473  17.9914180
  22.4051510  10.8053952  17.8693071  21.8263504  12.0583957  18.4912867
  20.2233675  14.3081732   8.2877082  20.9442037  14.6862985   7.7840799
  19.5998979  15.0270609   8.3912060  24.3664798  15.0126881   9.2235414
  24.5828412  15.8951519   8.9224242  23.8858865  14.6213094   8.4941056
  19.1064019  17.9712594  15.8006159  18.9608600  18.2852897  16.6930440
  18.6289223  18.5897494  15.2477057  20.9660402  14.9615142  15.8487048
  20.9521971  14.0656235  15.5119346  21.6832830  14.9685806  16.4825334
  22.8186533  15.3952482  17.8940176  22.5604310  16.3169553  17.8924506
  22.2871573  14.9982917  18.5840640  27.7632721  28.5003269  10.6730261
  27.9369599  27.9349692   9.9204114  28.2561613  29.3004164  10.4909751
  13.5809681  20.5117938  18.7393820  13.0363149  21.2877746  18.8714094
  14.4589031  20.8588743  18.5812941  20.3697298  13.8429522  11.1174619
  20.4913209  12.9146169  11.3165506  20.0799340  13.8568208  10.2052934
  23.2388488  11.5284433  14.2541338  23.2610185  11.5923766  13.2993318
  23.6556547  10.6888941  14.4481845  33.6172112  21.2639692  12.2920561
  34.0603259  20.5147018  11.8939684  32.7398623  21.2549829  11.9094293
  28.7507894  27.8170034   7.7727159  29.4458798  28.4376726   7.9914474
  29.0931044  26.9665385   8.0479537  14.3675703  19.6387835  21.6323977
  13.6257439  19.7870470  22.2188607  14.0468447  19.8996100  20.7690726
  30.6499317  25.2669739   9.3014490  31.1750641  25.6057012   8.5763810
  30.5621669  24.3316755   9.1177625  22.3339978  31.3341723  13.6609743
  21.8944968  30.8418101  14.3542600  23.0848095  30.7914690  13.4201819
  14.8132317  27.5253263  13.6634371  15.6390337  27.2257035  13.2833015
  14.4626369  26.7560886  14.1124160  19.7813850  26.8779732  15.7332045
  19.1593859  26.2150437  15.4334273  20.4518717  26.9040864  15.0505693
  13.0140922  25.4439590  14.6223305  12.1772830  25.0161764  14.4407306
  12.9864567  25.6372033  15.5594096  19.8538377  15.3561520  25.3264551
  19.9026533  16.2323643  24.9442321  20.3960892  14.8138913  24.7536194
  19.3427357  25.4283655   9.2090506  19.4915477  26.1119119   8.5557178
  20.1493800  25.4088745   9.7239961  27.7494860  18.7326037  23.2357723
  28.6504723  18.5932502  22.9441721  27.8242835  18.8980492  24.1755901
  33.1604977  22.7344931  14.6843009  33.9951869  23.1734735  14.8480569
  33.2964106  22.2583584  13.8651254  30.2096483  20.2924666  20.6320496
  30.6850605  20.4852312  19.8239348  29.2862048  20.3483851  20.3863880
  17.0979990  21.4548833  10.2151575  16.8526032  20.5511163  10.4131785
  17.2675904  21.4565983   9.2731053  24.7876700  12.3272509  19.5976330
  25.3058643  13.0633536  19.2722819  24.4331832  12.6336502  20.4323089
  16.3675637  17.1877190   7.7137736  15.6744882  17.2621545   7.0577772
  16.1227389  16.4237534   8.2359253  25.0389294   8.7472792  15.1177227
  25.3191048   8.0795981  15.7437653  25.8239901   8.9401887  14.6051891
  22.8422762  27.9231785   6.6802253  22.2696729  28.5421973   6.2272725
  23.4155556  28.4731147   7.2142175  28.9098152  17.1690426  18.8648802
  29.8615575  17.2688523  18.8861026  28.7401603  16.3768694  19.3746886
  26.9312532  14.2546009  19.0508203  26.3362464  14.5351022  18.3554691
  26.6462228  14.7439910  19.8224944  26.0620022  28.2068936   7.8110835
  26.9950695  28.1414497   8.0143711  25.9743235  29.0425202   7.3525368
  28.6908039  27.5234806   4.7714783  28.6121670  27.1894670   5.6650541
  29.5117706  28.0156574   4.7706255  31.3886230  20.3896545  17.9791102
  31.3562550  19.4512546  18.1650785  31.9986854  20.4680582  17.2456926
  23.2269561  19.2592598   4.0218306  24.1728665  19.1298806   4.0906724
  22.8483806  18.5207260   4.4987734  31.5380718  17.1807589  18.0249385
  31.0219767  16.3966045  17.8379314  32.4220667  16.8526305  18.1895904
  29.1991445  10.9248604  13.9845197  29.0016266  10.6163692  14.8688529
  29.8091151  11.6510243  14.1143127  37.2062780  21.4512552  17.1197138
  37.9366168  21.1897840  17.6804842  36.5969725  20.7141274  17.1599206
  35.2878077  19.5920415  17.7171590  34.5611240  19.4576380  17.1088081
  34.8725364  19.8997243  18.5228308  12.3290418  18.5048938  14.4072237
  12.0093203  17.6514246  14.1146611  11.7823846  18.7197516  15.1630205
  16.1070326  21.2211379  18.1241744  16.3256336  22.1528487  18.1429778
  16.5196100  20.8619353  18.9096548  23.0274544  11.7279464  10.1117432
  22.2175272  11.3826549  10.4872678  23.7158961  11.4187008  10.7005044
  24.9565092  10.8057511  11.7341729  25.5096131  11.2252965  12.3931752
  25.1935178   9.8793259  11.7764685  20.9798191  16.7944585  27.5144493
  20.8794918  17.7438942  27.4456584  20.7619733  16.4662824  26.6420563
  12.1978678  22.1251850  16.3765359  11.5042150  21.7105802  15.8635313
  12.9451669  22.1672386  15.7798778  28.3343899  12.9158036  11.2420393
  27.7542568  13.5742840  10.8598445  28.0679832  12.0935381  10.8307810
  26.7847465  12.3163094  13.4441713  27.2847244  12.4279629  12.6356032
  27.4283073  12.0124147  14.0842522  14.1115421  22.0570103  14.2531374
  14.0886109  22.1557791  13.3013257  14.4216057  22.9035254  14.5748540
  16.7702799  24.1146258  18.3677988  17.7246052  24.0830201  18.3007920
  16.5715322  23.6536882  19.1828214  17.3602181  22.6847374  20.9348786
  18.1795070  23.1791453  20.9583623  17.6338989  21.7679343  20.9066353
  27.1168777  15.0758127  10.2976741  26.2294632  15.3607777  10.0796936
  27.5322766  14.9151890   9.4504018  30.4683313  15.1004648  14.0131080
  31.2443703  15.5901100  14.2855697  29.7431447  15.5262702  14.4702950
  32.9055872  15.8132267  15.0705021  33.5000363  15.5728003  14.3598329
  32.9782455  15.0939397  15.6978557  15.1253027  29.6565878  15.3848186
  14.9907495  28.8966279  14.8186184  14.7085090  30.3806778  14.9176975
  26.2611990  24.8402801   4.3924761  26.9647841  25.0452804   5.0082417
  25.5374639  25.4079563   4.6573845  27.0909801  20.5912663  10.5127031
  27.0345002  21.0481214   9.6734664  27.6438143  19.8303347  10.3349874
  30.9014607  16.3802395  11.3377151  30.6451541  15.9799030  12.1685359
  30.2767475  17.0946188  11.2127290  35.2126945  19.1198468  13.8448442
  34.6526503  19.1891657  14.6180004  34.6070448  18.9439452  13.1247939
  18.2822153  30.5535195  15.5966629  18.1654538  31.4980627  15.4945319
  17.4614600  30.2508756  15.9852428  28.1698688  25.2785331   6.4423221
  29.0044292  24.8466529   6.2600696  28.0083031  25.1067344   7.3700116
  27.8244580  21.7817444   7.8079561  27.7693384  21.6161715   6.8668005
  27.1990635  22.4893477   7.9641750  12.6137095  17.0185508  21.6340983
  13.2595959  16.5084462  22.1228208  12.4054246  17.7554190  22.2084408
  21.1340706  11.2825553   7.3864879  21.1219375  12.2267393   7.5433150
  22.0264127  11.0995698   7.0924340  19.3076667  31.2063457  18.8122557
  20.2103914  31.2387067  19.1289052  19.0814038  30.2763908  18.8268893
  21.0630270  29.9594443  15.4732636  20.1125901  29.9596305  15.3597008
  21.3662756  29.2127178  14.9568670  24.9492825   7.8768330  11.6410816
  24.1825221   7.3226816  11.7867498  25.3603530   7.9490198  12.5024967
  16.9534586  14.1653125  25.7315997  17.8166048  13.8089930  25.9419322
  16.3799997  13.8267020  26.4191401  36.7982963  35.7954982  16.5378398
  37.4361373  35.6761729  15.8341738  36.6803806  36.7435826  16.5966350
  33.6072669  35.7482410  16.4739923  33.2691181  35.6323474  15.5860458
  34.4762437  35.3473575  16.4540929  29.4659485  37.6017886  12.4636814
  28.9024350  37.5107823  11.6953101  29.3511880  36.7817791  12.9439306
  27.0123917  39.0969078  15.3021034  27.8045209  38.7559902  14.8867333
  27.2520567  39.2064053  16.2223187  35.0459044  41.2688854   7.7751279
  34.3947023  41.8542934   7.3885292  35.8403406  41.7995049   7.8346316
  28.9714671  38.3577991   8.1738413  29.7445547  37.8106978   8.0351289
  29.3240070  39.2222240   8.3852874  30.8099713  39.6854373  21.3805312
  30.5189579  40.5900004  21.2651979  31.4456698  39.7270901  22.0949382
  31.3080949  34.5170657   5.8056863  31.5606469  33.9952178   5.0440326
  30.3705508  34.3536803   5.9083546  36.3524231  33.5206436  13.6131606
  37.1387321  33.1025859  13.2622023  36.6162936  34.4252528  13.7813254
  36.5234309  38.9579286   8.3120263  35.8880142  39.0313912   9.0241168
  36.1931715  39.5472885   7.6339342  41.7532659  33.4581669  14.5164585
  42.4857831  32.8880886  14.7502414  40.9972014  33.0703269  14.9571090
  31.0277237  36.4198763   8.0081238  30.9113496  35.7443667   8.6762322
  31.1379497  35.9331137   7.1913391  33.3708778  35.8808910  11.7127927
  33.0066986  35.3539531  12.4240849  34.2275894  35.4907379  11.5394412
  33.0114265  30.9098810   6.7089276  33.1788668  31.7779046   7.0759747
  32.8211434  31.0726092   5.7850565  35.7689598  39.3715789  18.3755106
  35.4690322  40.2740828  18.2670913  35.4240658  39.1047972  19.2276259
  29.2202080  35.8229586  14.4091810  28.2952576  35.6905800  14.6169502
  29.4686493  36.6023805  14.9061753  39.1686742  31.8898329  16.0552543
  38.2603620  31.8213737  15.7611304  39.1174338  32.3670274  16.8834369
  32.9903486  33.3656467   7.6935942  32.8703111  33.8113518   8.5321423
  32.2956075  33.7141785   7.1349481  26.5810891  35.4662859  15.2435599
  26.7103272  35.7197338  16.1575011  25.9008342  36.0590567  14.9240254
  30.7510378  46.1360109  11.3426074  30.6734408  47.0867934  11.4214554
  30.1472022  45.7905982  12.0001000  41.0348389  30.0914767  17.8330417
  40.3922769  30.3847301  17.1870212  40.5303317  29.9767688  18.6383614
  38.6888552  33.8377941   8.5216276  39.6006408  34.0705327   8.3463974
  38.1798199  34.4214985   7.9591355  36.9729320  38.2602568  22.1577569
  37.3812676  37.8184979  21.4132201  36.2506582  37.6855196  22.4111762
  37.2958135  38.8203759  15.9129858  36.6666997  38.9849473  15.2105926
  36.9083797  39.2345369  16.6840822  41.1747367  39.7558197  13.2674222
  40.4898405  40.1357098  12.7171255  41.2591216  40.3653524  14.0006169
  38.4298298  37.4018156  19.8669565  38.6415193  38.0449916  19.1903946
  38.3828046  36.5680472  19.3991495  32.8486097  38.5578167  13.1779943
  33.3124442  38.8365870  12.3884565  32.5842895  37.6561612  12.9953034
  29.7410178  38.1049649  16.1159706  30.3111535  38.5336917  15.4777191
  30.3318289  37.8232233  16.8143892  31.7854983  34.6801320   9.9869508
  32.4879026  35.1322363  10.4543434  31.4535611  34.0385138  10.6149401
  25.5280317  32.9384872  15.2886642  24.7379371  33.1942401  14.8126752
  26.0191564  33.7533210  15.3938682  39.5444126  40.2790111  18.0391923
  40.3661570  39.8770299  17.7574604  39.5406529  40.1758346  18.9908038
  27.4795062  33.3029451  12.2470118  26.6826225  33.4148146  12.7653614
  27.2520654  33.6416104  11.3811009  33.3100730  39.8274155  20.1952633
  33.3745162  40.2894562  21.0310805  32.6011653  39.1971520  20.3234943
  23.8118020  33.1915363  17.7201632  24.0626058  34.0762373  17.9859208
  24.3477568  33.0119964  16.9476724  47.6350119  36.6228860  14.3876894
  46.8813828  36.0536258  14.2320898  47.7697660  36.5891524  15.3347529
  33.0248747  41.4942262  10.0631613  32.8894422  42.3393798  10.4916461
  33.5658560  41.6961540   9.2997547  26.4778145  39.0117700  10.6359538
  26.9902665  39.8060950  10.7865103  27.1300857  38.3143991  10.5693140
  28.2873029  42.1283456  12.7182292  28.4639658  43.0501421  12.5303275
  29.0829863  41.8141876  13.1476671  27.5725386  34.1748088  22.5944455
  27.4578901  33.2733346  22.8951554  26.7169904  34.4211785  22.2429271
  34.6517224  42.1165829  24.1931955  34.2081078  41.3302207  23.8752860
  35.3134437  42.3044979  23.5275846  29.4104345  43.6461630  18.7192634
  29.9611770  43.5178694  17.9469628  28.5715821  43.9456519  18.3687527
  36.7498462  42.3968629  22.2213357  36.7316937  43.2177510  21.7293626
  37.6718382  42.2722704  22.4463498  33.2071516  39.9112758  23.0636865
  33.7399853  39.1501046  22.8336173  32.6785597  39.6186410  23.8061020
  24.4427061  37.3406354  11.4119109  25.2802283  37.7503363  11.1952817
  24.6205329  36.4005797  11.3819303  36.3391493  35.0081435   7.1002942
  35.8238117  35.7786040   7.3391329  36.0668802  34.3346571   7.7236003
  33.9238605  29.8531136  12.1588180  33.0680201  29.4637986  11.9793819
  34.3365556  29.9323097  11.2987966  41.3125768  37.7613790   9.0356115
  40.5355210  37.4224949   8.5911277  41.9917249  37.7666413   8.3611080
  36.1277797  32.8808527   8.9262723  35.8227932  33.1954676   9.7772866
  37.0808239  32.9589947   8.9690056  34.5724229  39.0398751  10.5755677
  34.0445590  38.3051510  10.2628915  34.0711731  39.8173427  10.3295645
  39.5517075  37.2347771  15.6922723  38.8940749  37.9247032  15.7802852
  40.3557474  37.6244203  16.0356710  29.3042956  29.7018417  12.9362289
  29.8786708  29.4793598  12.2035482  29.8913939  29.7707111  13.6890890
  38.3622533  35.5892144  13.7426665  38.8754415  36.2222136  14.2448375
  39.0123757  34.9893339  13.3770025  29.6312543  31.7322878   6.9558174
  28.7949855  32.0697564   7.2767449  29.4917313  31.5971858   6.0185311
  31.6065624  26.5759666  11.6637358  30.9530036  26.2608683  11.0393973
  31.5646098  25.9535406  12.3897181  32.7176829  36.8578961   3.5790650
  31.8103890  36.6268214   3.7781799  33.2147861  36.0616580   3.7664632
  34.8403364  33.0641599  15.9885006  33.9225926  33.2856546  15.8306694
  35.2563508  33.1387910  15.1296713  35.6238412  34.4633015  11.1187686
  36.3710231  34.9754412  10.8094808  35.8930002  34.1417068  11.9792079
  33.8965062  36.9591556   8.1014640  32.9876281  36.6750588   8.1987110
  33.9260146  37.3790634   7.2417947  39.1284330  40.5698145  11.8705808
  38.6746657  39.7289055  11.9270998  38.4978296  41.2059544  12.2080588
  38.0717249  31.4990131  13.1006475  37.3340006  30.9867517  13.4316718
  38.3244023  31.0590513  12.2889752  37.5717269  42.4074642  12.8055626
  37.8640243  42.9679699  12.0867992  38.0815889  42.7003203  13.5608785
  38.1728876  24.2766383  13.6948244  38.4787753  23.4163747  13.4074160
  38.8981481  24.8684003  13.4947238  24.4653233  34.6797070  12.0829842
  24.2677632  34.0866431  11.3580909  23.9099897  34.3749280  12.8005781
  32.4449956  34.5720176  14.2024436  32.4998566  33.6194013  14.1266912
  31.6341158  34.7279615  14.6865734  33.5941150  38.5000299   5.4402719
  33.1560580  37.7836158   4.9808356  34.3351591  38.7276414   4.8787810
  30.3842316  33.1897236  11.9614814  29.5710182  33.4891407  12.3680007
  30.8801310  32.7952925  12.6789297  32.5350894  43.1854993  13.8949079
  32.4927073  43.4115839  12.9657611  33.4513593  42.9518368  14.0434880
  41.7114265  36.7757496  11.4979037  41.5732163  36.9659092  10.5700227
  41.3550484  37.5376879  11.9547088  41.7383644  38.8434023  16.5090309
  42.1720151  38.7509312  17.3573363  42.4515225  38.8191524  15.8710325
  30.6516695  40.0618022  13.6911042  31.4457293  39.5668342  13.4893617
  29.9408387  39.5335885  13.3278747  35.4711539  42.4436118  18.0423409
  35.5248562  43.0127054  18.8101125  34.6026321  42.6138003  17.6777447
  26.9599458  34.2061104   9.7670795  26.0297046  34.1445559   9.9840757
  27.0556930  33.6837056   8.9707436  26.8785007  30.7315917  12.3549036
  27.1391825  31.6461250  12.2458197  27.7002180  30.2640359  12.5045649
  42.5999194  38.8857724  19.0423194  42.7935084  39.7903535  19.2882469
  42.4999812  38.4265143  19.8761779  37.6614303  39.0364467  24.6164075
  37.5099809  38.8075018  23.6994159  37.6518982  39.9935068  24.6295420
  33.2287971  40.6347044  17.3708879  33.0899056  40.2665828  18.2434817
  32.4402567  41.1494683  17.1992837  33.8236123  45.7356140   8.7134415
  33.9987878  45.2644184   9.5280038  33.1368911  46.3621907   8.9415676
  34.7793186  40.0128647  14.7597717  34.4443019  39.9729417  15.6555367
  34.2797132  39.3473363  14.2868127  37.7152378  37.3584681   5.0334776
  37.0981548  36.6331509   4.9367829  37.2468866  38.1194041   4.6901851
  39.3706509  42.0683589  22.6940557  39.3119055  41.3842809  22.0271140
  39.7726028  42.8102579  22.2421183  28.3897208  48.8845503  15.4874276
  28.6293806  49.5164027  16.1653294  27.5466404  48.5333543  15.7739635
  29.5050923  31.5770105   4.1556081  28.6280390  31.4558906   3.7918327
  29.9808677  30.7856184   3.9034969  39.3723916  40.0323173  20.9254536
  38.4850695  39.6949095  21.0480935  39.9422468  39.3006205  21.1623302
  21.0253064  36.3647265  14.2497588  21.7124103  36.0508995  13.6618603
  20.8701192  37.2688630  13.9764839  25.8287786  31.2537462  18.6782611
  25.7445974  30.6463131  17.9433021  25.0070492  31.7446480  18.6792108
  32.9025070  44.6924626  17.8915780  32.8295241  45.4979597  18.4035084
  32.4602463  44.8916591  17.0663801  32.6914849  43.9296396  11.4018601
  31.9082371  44.4718076  11.4956826  33.3907595  44.4470375  11.8012842
  36.0011500  29.7391025  14.0452807  36.4980199  28.9860987  13.7253877
  35.2298481  29.7755342  13.4796016  43.8541257  35.4431391  15.6871098
  43.8431133  36.3256106  15.3165031  42.9858636  35.0902941  15.4925635
  35.3623753  44.5911460  20.0473938  36.0751726  45.2258924  19.9749840
  34.8713782  44.6875326  19.2313940  37.0841280  38.4962712  11.6191230
  36.1497559  38.6164175  11.4495934  37.2617949  37.5935179  11.3551240
  32.5846468  31.8808408  13.7724491  32.2144256  31.3279448  14.4605397
  33.0805561  31.2766542  13.2199491  40.4713832  34.3380032  12.1541264
  40.9374284  35.1708023  12.0801567  40.9221332  33.8725013  12.8586523
  30.4135667  42.3405903  20.8679509  31.1145126  42.9742386  21.0208903
  29.9430782  42.6820635  20.1075148  38.5390063  40.6823853   9.1527416
  38.8149907  40.5680447  10.0621290  37.6694561  40.2841338   9.1139589
  38.4430494  26.7060619  16.1932165  37.5293574  26.9364845  16.3614372
  38.8723596  26.7899063  17.0446198  38.2136953  34.8950511  18.6932059
  37.5608403  35.1426418  18.0384512  38.5917333  34.0814649  18.3594537
  35.1744127  44.9310204  12.7960230  35.3566521  44.1131860  13.2587982
  35.9977113  45.1477896  12.3585120  35.5086292  43.8578389  10.0575278
  36.0374059  43.3470843   9.4445440  35.7714512  43.5420919  10.9220811
  26.0103385  41.8742258  17.8010612  26.5956822  41.1285946  17.9338516
  25.8128223  42.1846215  18.6847276  28.8642040  44.9093506  12.8173054
  28.1952415  45.3939633  12.3337094  28.7254910  45.1562726  13.7316433
  20.6021040  34.4447858  16.5215055  20.6405139  33.9111449  17.3152173
  20.0961333  33.9183064  15.9026032  33.0047309  46.9437249  19.4155713
  33.5565617  47.1068871  20.1804798  33.3453502  47.5341687  18.7435737
  37.8558183  41.7698507  25.2704367  38.3998087  42.3828465  24.7759322
  37.2745028  42.3278085  25.7871380  24.2329617  33.1711961   9.5968986
  24.5283058  32.2622639   9.5436040  23.3317653  33.1499700   9.2749989
  36.1415696  44.8919225  16.4019395  36.0166836  44.0908964  15.8930340
  36.7994787  45.3865418  15.9133365  27.7623864  31.2467957  15.5796535
  27.0410450  31.8603925  15.4404008  28.5517120  31.7825722  15.5013181
  38.2050604  42.6928245  18.0298945  37.2580940  42.5733596  17.9577271
  38.5533378  41.8050743  18.1125206  25.9617459  30.8526058   9.7208311
  25.6330165  29.9723437   9.5383417  26.3156830  30.7973727  10.6084701
  35.2097038  42.4880961  14.2303297  35.0622000  41.5597668  14.4110867
  36.0350531  42.5101052  13.7460372  29.0759282  31.1399028  10.0883789
  29.4155355  31.6684949   9.3662397  29.5231403  31.4779434  10.8642356
  38.8131160  43.3109520  15.3168170  39.7377707  43.1052381  15.1792621
  38.6446463  43.0625921  16.2257511  31.0627429  29.6373650   8.2877082
  31.7835792  30.0154902   7.7840799  30.4392733  30.3562526   8.3912060
  35.2058552  30.3418799   9.2235414  35.4222166  31.2243436   8.9224242
  34.7252619  29.9505012   8.4941056  38.6026476  43.8295187  10.6730261
  38.7763353  43.2641610   9.9204114  39.0955367  44.6296082  10.4909751
  24.4203436  35.8409856  18.7393820  23.8756904  36.6169664  18.8714094
  25.2982785  36.1880661  18.5812941  31.2091052  29.1721440  11.1174619
  31.3306963  28.2438086  11.3165506  30.9193095  29.1860126  10.2052934
  34.0782243  26.8576350  14.2541338  34.1003939  26.9215684  13.2993318
  34.4950302  26.0180859  14.4481845  44.4565867  36.5931610  12.2920561
  44.8997013  35.8438935  11.8939684  43.5792377  36.5841746  11.9094293
  25.2069457  34.9679752  21.6323977  24.4651194  35.1162388  22.2188607
  24.8862202  35.2288018  20.7690726  41.4893071  40.5961657   9.3014490
  42.0144396  40.9348930   8.5763810  41.4015424  39.6608672   9.1177625
  33.1513120  44.5095731  21.4304367  33.4600247  44.2644877  22.3027066
  33.9488602  44.7142369  20.9423237  33.1733732  46.6633640  13.6609743
  32.7338722  46.1710019  14.3542600  33.9241849  46.1206608  13.4201819
  25.6526071  42.8545181  13.6634371  26.4784091  42.5548953  13.2833015
  25.3020123  42.0852804  14.1124160  30.6207604  42.2071649  15.7332045
  29.9987614  41.5442354  15.4334273  31.2912471  42.2332781  15.0505693
  23.8534676  40.7731508  14.6223305  23.0166585  40.3453682  14.4407306
  23.8258322  40.9663951  15.5594096  41.1786977  41.2294561  24.6065688
  40.3882521  41.2118700  24.0670188  40.9420332  41.7682854  25.3614725
  41.2984853  38.0787027  21.9198417  41.3482857  37.9137034  22.8613940
  41.1898776  37.2114286  21.5296298  30.1821111  40.7575573   9.2090506
  30.3309232  41.4411037   8.5557178  30.9887555  40.7380663   9.7239961
  38.5888615  34.0617955  23.2357723  39.4898478  33.9224420  22.9441721
  38.6636589  34.2272410  24.1755901  42.8003049  40.4983969  22.1640438
  42.5087858  40.8613949  23.0003899  42.1875181  39.7850977  21.9853770
  43.9998732  38.0636848  14.6843009  44.8345623  38.5026652  14.8480569
  44.1357860  37.5875502  13.8651254  41.0490238  35.6216583  20.6320496
  41.5244359  35.8144229  19.8239348  40.1255803  35.6775769  20.3863880
  27.9373744  36.7840750  10.2151575  27.6919786  35.8803080  10.4131785
  28.1069659  36.7857901   9.2731053  27.2069392  32.5169108   7.7137736
  26.5138637  32.5913463   7.0577772  26.9621144  31.7529452   8.2359253
  35.8783048  24.0764709  15.1177227  36.1584802  23.4087898  15.7437653
  36.6633655  24.2693805  14.6051891  33.6816517  43.2523703   6.6802253
  33.1090484  43.8713890   6.2272725  34.2549310  43.8023065   7.2142175
  39.7491907  32.4982343  18.8648802  40.7009329  32.5980441  18.8861026
  39.5795357  31.7060612  19.3746886  36.9013777  43.5360853   7.8110835
  37.8344450  43.4706415   8.0143711  36.8136989  44.3717120   7.3525368
  42.2279984  35.7188463  17.9791102  42.1956304  34.7804464  18.1650785
  42.8380608  35.7972500  17.2456926  34.0663315  34.5884516   4.0218306
  35.0122420  34.4590724   4.0906724  33.6877560  33.8499178   4.4987734
  42.3774473  32.5099506  18.0249385  41.8613522  31.7257963  17.8379314
  43.2614421  32.1818223  18.1895904  40.0385200  26.2540522  13.9845197
  39.8410021  25.9455610  14.8688529  40.6484905  26.9802161  14.1143127
  48.0456534  36.7804470  17.1197138  48.7759923  36.5189758  17.6804842
  47.4363480  36.0433192  17.1599206  46.1271831  34.9212332  17.7171590
  45.4004995  34.7868297  17.1088081  45.7119118  35.2289161  18.5228308
  33.9502008  38.6402262  25.4818963  34.8705017  38.8180861  25.6759009
  33.9151591  37.6958307  25.3298662  32.2506232  32.5134492   3.9573191
  31.3437688  32.2167605   4.0335904  32.5282213  32.2164310   3.0907477
  23.1684173  33.8340856  14.4072237  22.8486957  32.9806164  14.1146611
  22.6217601  34.0489434  15.1630205  26.9464080  36.5503297  18.1241744
  27.1650090  37.4820405  18.1429778  27.3589854  36.1911271  18.9096548
  33.8668298  27.0571382  10.1117432  33.0569026  26.7118467  10.4872678
  34.5552715  26.7478926  10.7005044  35.7958846  26.1349429  11.7341729
  36.3489885  26.5544882  12.3931752  36.0328933  25.2085177  11.7764685
  31.0205017  29.3721428   4.0985170  31.8824181  29.6976326   4.3580987
  31.2055361  28.5852923   3.5858236  23.0372433  37.4543767  16.3765359
  22.3435904  37.0397720  15.8635313  23.7845424  37.4964304  15.7798778
  39.1737653  28.2449954  11.2420393  38.5936323  28.9034758  10.8598445
  38.9073586  27.4227299  10.8307810  37.6241220  27.6455012  13.4441713
  38.1240998  27.7571546  12.6356032  38.2676828  27.3416065  14.0842522
  24.9509175  37.3862021  14.2531374  24.9279863  37.4849708  13.3013257
  25.2609812  38.2327172  14.5748540  27.6096553  39.4438176  18.3677988
  28.5639807  39.4122118  18.3007920  27.4109077  38.9828800  19.1828214
  28.1995935  38.0139292  20.9348786  29.0188824  38.5083371  20.9583623
  28.4732743  37.0971260  20.9066353  37.9562532  30.4050044  10.2976741
  37.0688387  30.6899695  10.0796936  38.3716521  30.2443808   9.4504018
  41.3077068  30.4296565  14.0131080  42.0837458  30.9193018  14.2855697
  40.5825202  30.8554620  14.4702950  43.7449626  31.1424185  15.0705021
  44.3394117  30.9019921  14.3598329  43.8176210  30.4231315  15.6978557
  25.9646782  44.9857796  15.3848186  25.8301250  44.2258196  14.8186184
  25.5478844  45.7098695  14.9176975  37.9303555  35.9204580  10.5127031
  37.8738757  36.3773132   9.6734664  38.4831898  35.1595265  10.3349874
  41.7408361  31.7094312  11.3377151  41.4845295  31.3090948  12.1685359
  41.1161229  32.4238106  11.2127290  46.0520699  34.4490385  13.8448442
  45.4920257  34.5183575  14.6180004  45.4464202  34.2731370  13.1247939
  29.1215908  45.8827113  15.5966629  29.0048292  46.8272545  15.4945319
  28.3008354  45.5800674  15.9852428  39.0092442  40.6077248   6.4423221
  39.8438046  40.1758447   6.2600696  38.8476785  40.4359262   7.3700116
  38.6638335  37.1109362   7.8079561  38.6087138  36.9453633   6.8668005
  38.0384390  37.8185394   7.9641750  23.4530850  32.3477426  21.6340983
  24.0989713  31.8376380  22.1228208  23.2448001  33.0846108  22.2084408
  35.9784242  39.4158273  27.1333123  36.8475401  39.5898926  26.7719758
  35.4990993  40.2352690  27.0108853  31.9734460  26.6117471   7.3864879
  31.9613130  27.5559310   7.5433150  32.8657882  26.4287616   7.0924340
  30.1470422  46.5355374  18.8122557  31.0497669  46.5678985  19.1289052
  29.9207792  45.6055825  18.8268893  31.9024024  45.2886361  15.4732636
  30.9519655  45.2888223  15.3597008  32.2056510  44.5419096  14.9568670
  35.7886579  23.2060247  11.6410816  35.0218975  22.6518734  11.7867498
  36.1997284  23.2782116  12.5024967  47.6376717  51.1246899  16.5378398
  48.2755127  51.0053647  15.8341738  47.5197560  52.0727743  16.5966350
  44.4466424  51.0774327  16.4739923  44.1084935  50.9615392  15.5860458
  45.3156192  50.6765493  16.4540929  44.9286207  52.2309179  22.4326128
  44.9174848  51.8361977  21.5606632  45.0906846  51.4975252  23.0259900
  37.8517671  54.4260995  15.3021034  38.6438963  54.0851820  14.8867333
  38.0914322  54.5355971  16.2223187  41.6493468  55.0146291  21.3805312
  41.3583334  55.9191922  21.2651979  42.2850452  55.0562819  22.0949382
  42.5749675  52.3923140  17.9706672  43.1713247  52.1679162  17.2563635
  42.6324646  51.6507885  18.5732120  50.1151833  42.4995161  18.9759193
  49.7835158  43.3690571  18.7520408  49.5197447  42.1831445  19.6553224
  40.0595834  51.1521503  14.4091810  39.1346331  51.0197717  14.6169502
  40.3080248  51.9315723  14.9061753  50.0080497  47.2190247  16.0552543
  49.0997374  47.1505655  15.7611304  49.9568093  47.6962192  16.8834369
  37.4204646  50.7954777  15.2435599  37.5497027  51.0489256  16.1575011
  36.7402097  51.3882485  14.9240254  44.0821363  48.6379892  23.9987441
  43.3054697  49.1973812  23.9890305  44.7211926  49.1236675  24.5202311
  51.8742143  45.4206685  17.8330417  51.2316523  45.7139218  17.1870212
  51.3697072  45.3059605  18.6383614  42.3367735  51.4465346  23.5605408
  43.0782419  51.9850390  23.2840231  41.6304720  52.0731634  23.7176959
  47.8123075  53.5894486  22.1577569  48.2206431  53.1476897  21.4132201
  47.0900336  53.0147114  22.4111762  44.1654145  48.5267093  19.5311126
  45.0115340  48.9506506  19.6745775  44.1052782  47.8700717  20.2249689
  46.8718282  45.3427894  16.7706137  46.0102761  45.6409148  17.0622875
  46.8980716  45.5598293  15.8387170  40.5803932  53.4341566  16.1159706
  41.1505289  53.8628835  15.4777191  41.1712044  53.1524151  16.8143892
  41.0729099  48.6004994  24.3620718  40.4427759  49.2821275  24.5956114
  40.9665186  48.4888075  23.4173856  36.3674071  48.2676790  15.2886642
  35.5773125  48.5234318  14.8126752  36.8585318  49.0825128  15.3938682
  38.3188816  48.6321369  12.2470118  37.5219980  48.7440063  12.7653614
  38.0914409  48.9708021  11.3811009  44.1494484  55.1566072  20.1952633
  44.2138917  55.6186480  21.0310805  43.4405408  54.5263437  20.3234943
  34.6511774  48.5207280  17.7201632  34.9019812  49.4054290  17.9859208
  35.1871322  48.3411882  16.9476724  40.3509841  42.9025760  26.7245969
  39.9576787  42.3491958  27.3993613  41.1675982  43.2136338  27.1152486
  43.2677802  44.3183639  24.3166225  44.0087516  44.9190792  24.2370688
  43.4995725  43.5761277  23.7584268  38.4119140  49.5040006  22.5944455
  38.2972655  48.6025263  22.8951554  37.5563658  49.7503703  22.2429271
  40.2498099  58.9753548  18.7192634  40.8005524  58.8470611  17.9469628
  39.4109575  59.2748437  18.3687527  44.0465270  55.2404676  23.0636865
  44.5793607  54.4792964  22.8336173  43.5179351  54.9478328  23.8061020
  47.2134965  40.3464742  18.5930507  46.8699235  41.2366383  18.5169617
  47.5813928  40.1566399  17.7300092  44.7632359  45.1823054  12.1588180
  43.9073955  44.7929904  11.9793819  45.1759311  45.2615014  11.2987966
  46.2931506  42.7169397  16.5579740  45.7896301  42.6799532  15.7447545
  46.5862113  43.6262140  16.6176397  42.5374392  42.8008127  15.5645922
  43.4027388  42.6050935  15.2051811  42.6051900  42.5718478  16.4915279
  40.1436711  45.0310335  12.9362289  40.7180463  44.8085516  12.2035482
  40.7307693  45.0999029  13.6890890  42.4459378  41.9051583  11.6637358
  41.7923791  41.5900601  11.0393973  42.4039852  41.2827324  12.3897181
  45.6797119  48.3933517  15.9885006  44.7619680  48.6148464  15.8306694
  46.0957262  48.4679827  15.1296713  49.0122631  39.6058301  13.6948244
  49.3181508  38.7455664  13.4074160  49.7375236  40.1975921  13.4947238
  35.3046987  50.0088987  12.0829842  35.1071387  49.4158348  11.3580909
  34.7493651  49.7041198  12.8005781  43.2843711  49.9012094  14.2024436
  43.3392320  48.9485930  14.1266912  42.4734913  50.0571533  14.6865734
  41.2236071  48.5189154  11.9614814  40.4103936  48.8183324  12.3680007
  41.7195065  48.1244842  12.6789297  46.8210282  48.9830978  20.7929708
  47.1759670  49.2102451  21.6524174  47.4682413  49.3149355  20.1706964
  40.7150145  46.0907509  17.5776049  41.3549525  45.9496268  16.8799013
  39.8827676  45.8042023  17.2014651  37.7178762  46.0607834  12.3549036
  37.9785579  46.9753167  12.2458197  38.5395934  45.5932277  12.5045649
  39.1903687  47.4745591  19.5247861  39.8626741  47.2662954  18.8760510
  38.3633474  47.2767677  19.0853093  45.0929259  44.1007532  21.5413522
  44.4457174  44.7997482  21.4477998  45.8630275  44.5343676  21.9089770
  45.2693393  51.9388297  19.6010341  46.1985453  52.0899457  19.4279309
  44.8484423  52.0272318  18.7458988  44.0681725  55.9638962  17.3708879
  43.9292811  55.5957746  18.2434817  43.2796321  56.4786601  17.1992837
  39.5931184  50.7488194  20.2850298  39.4550982  50.0168433  20.8861837
  40.5036108  50.6597094  20.0034486  42.2213485  50.4608154  19.7733978
  42.9313104  49.8201346  19.7320596  42.1782793  50.7121049  20.6960158
  40.9342419  47.4473372  21.5929617  40.3979776  46.9964110  22.2451213
  40.3459127  47.5819280  20.8500081  31.8646818  51.6939183  14.2497588
  32.5517858  51.3800913  13.6618603  31.7094947  52.5980547  13.9764839
  36.6681540  46.5829379  18.6782611  36.5839729  45.9755049  17.9433021
  35.8464247  47.0738398  18.6792108  46.8405254  45.0682943  14.0452807
  47.3373954  44.3152905  13.7253877  46.0692236  45.1047259  13.4796016
  43.4240223  47.2100326  13.7724491  43.0538010  46.6571366  14.4605397
  43.9199315  46.6058459  13.2199491  49.2824249  42.0352536  16.1932165
  48.3687329  42.2656763  16.3614372  49.7117350  42.1190980  17.0446198
  49.0530707  50.2242428  18.6932059  48.4002158  50.4718336  18.0384512
  49.4311087  49.4106566  18.3594537  45.1018280  50.9662239  25.1798097
  44.4258917  50.8656369  25.8500472  45.9245914  50.8101453  25.6434094
  36.8497139  57.2034176  17.8010612  37.4350576  56.4577864  17.9338516
  36.6521978  57.5138133  18.6847276  31.4414794  49.7739776  16.5215055
  31.4798894  49.2403367  17.3152173  30.9355087  49.2474982  15.9026032
  38.8205557  44.6204317  20.0177597  38.8846883  45.4819147  19.6054995
  38.7572677  44.0078318  19.2849956  38.2957829  46.6927449  23.6650631
  38.9229868  46.3104526  24.2788156  37.4385748  46.4741651  24.0306324
  35.0723372  48.5003878   9.5968986  35.3676813  47.5914557   9.5436040
  34.1711408  48.4791618   9.2749989  38.6017619  46.5759875  15.5796535
  37.8804205  47.1895842  15.4404008  39.3910875  47.1117640  15.5013181
  41.4043932  43.9114301  21.8537187  41.9278334  44.1576598  22.6163496
  41.1856266  44.7434336  21.4340324  36.8011213  46.1817976   9.7208311
  36.4723920  45.3015355   9.5383417  37.1550584  46.1265645  10.6084701
  42.6096477  44.8527996  19.5386857  42.2693298  44.0535809  19.9407537
  41.9035484  45.1529707  18.9663690  43.2612949  41.9377309  17.9914180
  44.0839019  41.4637787  17.8693071  43.5051013  42.7167793  18.4912867
  40.7851528  48.6296429  15.8006159  40.6396109  48.9436733  16.6930440
  40.3076732  49.2481330  15.2477057  42.6447911  45.6198977  15.8487048
  42.6309480  44.7240071  15.5119346  43.3620339  45.6269641  16.4825334
  44.4974042  46.0536318  17.8940176  44.2391819  46.9753388  17.8924506
  43.9659082  45.6566752  18.5840640  35.2597190  51.1701774  18.7393820
  34.7150658  51.9461582  18.8714094  36.1376540  51.5172578  18.5812941
  42.0484807  44.5013358  11.1174619  42.1700718  43.5730004  11.3165506
  41.7586849  44.5152044  10.2052934  44.9175997  42.1868268  14.2541338
  44.9397694  42.2507601  13.2993318  45.3344056  41.3472777  14.4481845
  36.0463212  50.2971670  21.6323977  35.3044948  50.4454305  22.2188607
  35.7255956  50.5579936  20.7690726  34.6928431  56.1023425  14.6223305
  33.8560339  55.6745600  14.4407306  34.6652076  56.2955869  15.5594096
  41.5325886  46.0145355  25.3264551  41.5814042  46.8907478  24.9442321
  42.0748401  45.4722748  24.7536194  49.4282369  49.3909873  23.2357723
  50.3292232  49.2516338  22.9441721  49.5030344  49.5564328  24.1755901
  43.7625175  46.7676728  22.0810910  42.8928484  47.0610294  21.8093498
  43.9984655  47.3517172  22.8018173  46.4664209  42.9856344  19.5976330
  46.9846152  43.7217371  19.2722819  46.1119341  43.2920338  20.4323089
  46.7176803  39.4056627  15.1177227  46.9978557  38.7379816  15.7437653
  47.5027410  39.5985723  14.6051891  50.5885661  47.8274261  18.8648802
  51.5403084  47.9272359  18.8861026  50.4189112  47.0352530  19.3746886
  48.6100041  44.9129844  19.0508203  48.0149973  45.1934857  18.3554691
  48.3249737  45.4023745  19.8224944  53.2168227  47.8391424  18.0249385
  52.7007276  47.0549881  17.8379314  54.1008176  47.5110141  18.1895904
  50.8778954  41.5832440  13.9845197  50.6803775  41.2747528  14.8688529
  51.4878660  42.3094079  14.1143127  44.7895762  53.9694180  25.4818963
  45.7098772  54.1472779  25.6759009  44.7545345  53.0250225  25.3298662
  34.0077927  49.1632773  14.4072237  33.6880712  48.3098082  14.1146611
  33.4611355  49.3781352  15.1630205  37.7857835  51.8795214  18.1241744
  38.0043845  52.8112322  18.1429778  38.1983609  51.5203189  18.9096548
  44.7062053  42.3863300  10.1117432  43.8962781  42.0410385  10.4872678
  45.3946470  42.0770843  10.7005044  46.6352601  41.4641347  11.7341729
  47.1883640  41.8836800  12.3931752  46.8722687  40.5377095  11.7764685
  42.6585700  47.4528420  27.5144493  42.5582427  48.4022777  27.4456584
  42.4407242  47.1246659  26.6420563  33.8766187  52.7835685  16.3765359
  33.1829659  52.3689638  15.8635313  34.6239178  52.8256221  15.7798778
  48.4634974  42.9746929  13.4441713  48.9634753  43.0863464  12.6356032
  49.1070582  42.6707982  14.0842522  42.5216970  50.8825559  26.3309554
  42.0384052  51.6825919  26.5373443  42.6077909  50.8933504  25.3776998
  35.7902930  52.7153939  14.2531374  35.7673618  52.8141626  13.3013257
  36.1003566  53.5619089  14.5748540  38.4490308  54.7730094  18.3677988
  39.4033561  54.7414036  18.3007920  38.2502831  54.3120717  19.1828214
  39.0389690  53.3431210  20.9348786  39.8582579  53.8375288  20.9583623
  39.3126498  52.4263178  20.9066353  34.2924604  47.6769344  21.6340983
  34.9383468  47.1668298  22.1228208  34.0841755  48.4138025  22.2084408
  46.6280334  38.5352165  11.6410816  45.8612730  37.9810652  11.7867498
  47.0391039  38.6074034  12.5024967  38.6322095  44.8236961  25.7315997
  39.4953557  44.4673766  25.9419322  38.0587506  44.4850856  26.4191401
  27.0164430   3.4468712  11.9949674  27.5604334   4.0598670  11.5004628
  26.4351275   4.0048290  12.5116687  30.3393224   2.9064766  11.3310995
  29.5488768   2.8888904  10.7915494  30.1026579   3.4453059  12.0860031
  31.9609296   2.1754173   8.8885745  31.6694104   2.5384154   9.7249206
  31.3481427   1.4621182   8.7099077  25.1390489   1.0928478  13.8578430
  26.0081648   1.2669131  13.4965065  24.6597240   1.9122895  13.7354159
  36.7982964  12.8017104   3.2623705  37.4361374  12.6823852   2.5587045
  36.6803807  13.7497948   3.3211657  33.6072671  12.7544532   3.1985229
  33.2691182  12.6385597   2.3105764  34.4762439  12.3535697   3.1786235
  34.0892454  13.9079384   9.1571435  34.0781094  13.5132182   8.2851939
  34.2513093  13.1745457   9.7505206  30.8099715  16.6916496   8.1050619
  30.5189581  17.5962127   7.9897285  31.4456699  16.7333024   8.8194688
  31.7355922  14.0693344   4.6951979  32.3319494  13.8449367   3.9808941
  31.7930893  13.3278090   5.2977426  35.7689600  16.3777911   5.1000413
  35.4690323  17.2802950   4.9916220  35.4240659  16.1110095   5.9521565
  30.7510380  23.1422232  -1.9328620  30.6734409  24.0930057  -1.8540139
  30.1472023  22.7968104  -1.2753693  33.2427609  10.3150097  10.7232747
  32.4660943  10.8744017  10.7135612  33.8818172  10.8006880  11.2447617
  31.4973982  13.1235551  10.2850714  32.2388666  13.6620595  10.0085538
  30.7910967  13.7501839  10.4422266  36.9729321  15.2664691   8.8822876
  37.3812677  14.8247102   8.1377508  36.2506583  14.6917319   9.1357069
  33.3260391  10.2037298   6.2556433  34.1721587  10.6276711   6.3991082
  33.2659029   9.5470922   6.9494996  37.2958136  15.8265882   2.6375165
  36.6666998  15.9911596   1.9351232  36.9083798  16.2407491   3.4086129
  36.4759837   7.8641666   7.9137606  36.2320769   8.6183727   7.3771882
  36.7519767   8.2427014   8.7484853  38.4298299  14.4080279   6.5914872
  38.6415195  15.0512038   5.9149253  38.3828048  13.5742595   6.1236802
  29.7410179  15.1111771   2.8405013  30.3111536  15.5399040   2.2022497
  30.3318291  14.8294356   3.5389199  30.2335345  10.2775199  11.0866024
  29.6034006  10.9591480  11.3201421  30.1271433  10.1658280  10.1419162
  39.5444127  17.2852234   4.7637229  40.3661571  16.8832421   4.4819911
  39.5406530  17.1820468   5.7153345  33.3100731  16.8336277   6.9197940
  33.3745163  17.2956684   7.7556111  32.6011655  16.2033642   7.0480249
  29.5116088   4.5795965  13.4491275  29.1183034   4.0262163  14.1238919
  30.3282228   4.8906543  13.8397793  32.4284049   5.9953844  11.0411532
  33.1693762   6.5960997  10.9615994  32.6601972   5.2531481  10.4829574
  27.5725387  11.1810211   9.3189761  27.4578902  10.2795468   9.6196860
  26.7169905  11.4273908   8.9674578  34.6517225  19.1227951  10.9177262
  34.2081079  18.3364330  10.5998167  35.3134438  19.3107102  10.2521153
  29.4104346  20.6523753   5.4437941  29.9611771  20.5240816   4.6714935
  28.5715822  20.9518642   5.0932833  36.7498463  19.4030751   8.9458663
  36.7316938  20.2239632   8.4538932  37.6718383  19.2784826   9.1708804
  33.2071517  16.9174881   9.7882172  33.7399854  16.1563169   9.5581480
  32.6785598  16.6248532  10.5306326  39.5517076  14.2409894   2.4168030
  38.8940750  14.9309155   2.5048159  40.3557475  14.6306326   2.7602016
  39.1284331  17.5760268  -1.4048886  38.6746658  16.7351178  -1.3483695
  38.4978298  18.2121666  -1.0674105  37.5717270  19.4136764  -0.4699067
  37.8640244  19.9741822  -1.1886702  38.0815891  19.7065325   0.2854092
  32.5350895  20.1917116   0.6194386  32.4927074  20.4177962  -0.3097082
  33.4513594  19.9580490   0.7680187  35.9816529  10.6601183   7.5175015
  36.3365917  10.8872656   8.3769481  36.6288660  10.9919560   6.8952270
  41.7383646  15.8496146   3.2335615  42.1720152  15.7571435   4.0818670
  42.4515226  15.8253646   2.5955631  35.4711540  19.4498240   4.7668716
  35.5248563  20.0189176   5.5346432  34.6026322  19.6200125   4.4022753
  42.5999195  15.8919847   5.7668501  42.7935085  16.7965657   6.0127776
  42.4999813  15.4327266   6.6007086  34.2535506   5.7777737   8.2658828
  33.6063421   6.4767687   8.1723305  35.0236521   6.2113881   8.6335076
  37.6614304  16.0426589  11.3409381  37.5099810  15.8137141  10.4239465
  37.6518983  16.9997191  11.3540727  34.4299640  13.6158502   6.3255648
  35.3591700  13.7669662   6.1524615  34.0090670  13.7042523   5.4704294
  33.2287972  17.6409167   4.0954186  33.0899058  17.2727951   4.9680124
  32.4402568  18.1556806   3.9238143  33.8236124  22.7418263  -4.5620278
  33.9987880  22.2706306  -3.7474655  33.1368912  23.3684029  -4.3339017
  34.7793187  17.0190769   1.4843023  34.4443020  16.9791539   2.3800673
  34.2797133  16.3535485   1.0113434  28.7537431  12.4258399   7.0095605
  28.6157229  11.6938638   7.6107144  29.6642355  12.3367299   6.7279792
  31.3819732  12.1378359   6.4979284  32.0919350  11.4971551   6.4565903
  31.3389040  12.3891253   7.4205465  39.3706510  19.0745712   9.4185863
  39.3119057  18.3904932   8.7516446  39.7726029  19.8164702   8.9666489
  30.0948666   9.1243576   8.3174924  29.5586023   8.6734315   8.9696520
  29.5065374   9.2589485   7.5745388  28.3897209  25.8907626   2.2119582
  28.6293807  26.5226150   2.8898601  27.5466406  25.5395666   2.4984942
  39.3723918  17.0385296   7.6499843  38.4850696  16.7011218   7.7726242
  39.9422469  16.3068327   7.8868608  32.9025071  21.6986748   4.6161086
  32.8295243  22.5041720   5.1280391  32.4602464  21.8978714   3.7909108
  32.6914851  20.9358518  -1.8736092  31.9082373  21.4780198  -1.7797868
  33.3907596  21.4532498  -1.4741851  35.3623755  21.5973582   6.7719245
  36.0751727  22.2321047   6.6995146  34.8713783  21.6937448   5.9559247
  30.4135668  19.3468026   7.5924816  31.1145128  19.9804509   7.7454210
  29.9430783  19.6882757   6.8320455  38.2136954  11.9012633   5.4177366
  37.5608404  12.1488541   4.7629819  38.5917334  11.0876771   5.0839843
  35.1744128  21.9372326  -0.4794464  35.3566523  21.1193982  -0.0166711
  35.9977114  22.1540019  -0.9169574  35.5086294  20.8640511  -3.2179415
  36.0374060  20.3532966  -3.8309253  35.7714513  20.5483042  -2.3533882
  34.2624527  12.6432444  11.9043403  33.5865164  12.5426574  12.5745778
  35.0852161  12.4871658  12.3679400  26.0103386  18.8804381   4.5255918
  26.5956823  18.1348069   4.6583823  25.8128225  19.1908337   5.4092582
  28.8642041  21.9155628  -0.4581639  28.1952417  22.4001756  -0.9417599
  28.7254911  22.1624849   0.4561739  33.0047310  23.9499372   6.1401019
  33.5565618  24.1130993   6.9050104  33.3453504  24.5403810   5.4681044
  27.4564076   8.3697654  10.3895938  28.0836115   7.9874731  11.0033462
  26.5991995   8.1511856  10.7551631  37.8558184  18.7760629  11.9949674
  38.3998088  19.3890587  11.5004628  37.2745029  19.3340208  12.5116687
  36.1415697  21.8981347   3.1264701  36.0166837  21.0971087   2.6175647
  36.7994788  22.3927541   2.6378671  38.2050606  19.6990367   4.7544251
  37.2580941  19.5795718   4.6822578  38.5533379  18.8112865   4.8370513
  30.5650179   5.5884506   8.5782493  31.0884581   5.8346803   9.3408803
  30.3462512   6.4204541   8.1585631  35.2097039  19.4943084   0.9548604
  35.0622001  18.5659791   1.1356174  36.0350533  19.5163174   0.4705679
  38.8131161  20.3171642   2.0413476  39.7377708  20.1114504   1.9037928
  38.6446464  20.0688043   2.9502818  31.7702724   6.5298201   6.2632164
  31.4299544   5.7306014   6.6652844  31.0641730   6.8299912   5.6908997
  33.6580288   7.7306523   4.6185482  33.3998066   8.6523593   4.6169813
  33.1265329   7.3336957   5.3085947  38.6026477  20.8357310  -2.6024432
  38.7763355  20.2703732  -3.3550580  39.0955368  21.6358205  -2.7844942
  24.4203437  12.8471979   5.4639127  23.8756905  13.6231787   5.5959401
  25.2982787  13.1942783   5.3058248  25.2069459  11.9741875   8.3569284
  24.4651195  12.1224510   8.9433914  24.8862203  12.2350141   7.4936033
  33.1513121  21.5157853   8.1549674  33.4600248  21.2707000   9.0272373
  33.9488603  21.7204492   7.6668544  33.1733733  23.6695763   0.3855050
  32.7338724  23.1772142   1.0787907  33.9241850  23.1268731   0.1447125
  30.6207606  19.2133772   2.4577352  29.9987615  18.5504477   2.1579580
  31.2912472  19.2394904   1.7751000  30.6932133   7.6915560  12.0509858
  30.7420289   8.5677683  11.6687627  31.2354647   7.1492953  11.4781501
  41.1786979  18.2356683  11.3310995  40.3882522  18.2180822  10.7915494
  40.9420333  18.7744977  12.0860031  41.2984854  15.0849150   8.6443723
  41.3482859  14.9199157   9.5859246  41.1898777  14.2176409   8.2541604
  38.5888616  11.0680078   9.9603030  39.4898479  10.9286543   9.6687028
  38.6636591  11.2334532  10.9001208  32.9231422   8.4446932   8.8056216
  32.0534731   8.7380498   8.5338805  33.1590902   9.0287377   9.5263480
  41.0490239  12.6278706   7.3565803  41.5244360  12.8206352   6.5484654
  40.1255804  12.6837892   7.1109187  35.6270455   4.6626549   6.3221637
  36.1452399   5.3987576   5.9968125  35.2725588   4.9690543   7.1568396
  39.7491908   9.5044466   5.5894109  40.7009331   9.6042564   5.6106333
  39.5795358   8.7122734   6.0992193  37.7706287   6.5900049   5.7753509
  37.1756219   6.8705062   5.0799998  37.4855984   7.0793950   6.5470251
  42.2279986  12.7250586   4.7036408  42.1956306  11.7866586   4.8896092
  42.8380609  12.8034622   3.9702233  33.9502009  15.6464385  12.2064269
  34.8705019  15.8242984  12.4004316  33.9151592  14.7020430  12.0543968
  26.9464082  13.5565419   4.8487050  27.1650091  14.4882527   4.8675084
  27.3589855  13.1973394   5.6341854  31.8191947   9.1298625  14.2389799
  31.7188674  10.0792982  14.1701890  31.6013489   8.8016864  13.3665869
  31.6823217  12.5595764  13.0554861  31.1990299  13.3596124  13.2618750
  31.7684156  12.5703709  12.1022305  27.6096554  16.4500299   5.0923295
  28.5639808  16.4184241   5.0253226  27.4109078  15.9890922   5.9073521
  28.1995937  15.0201415   7.6594092  29.0188826  15.5145493   7.6828930
  28.4732744  14.1033383   7.6311660  25.9646783  21.9919918   2.1093493
  25.8301251  21.2320319   1.5431491  25.5478846  22.7160818   1.6422281
  29.1215909  22.8889235   2.3211935  29.0048293  23.8334668   2.2190625
  28.3008355  22.5862797   2.7097734  23.4530851   9.3539549   8.3586289
  24.0989714   8.8438503   8.8473515  23.2448002  10.0908230   8.9329715
  35.9784243  16.4220396  13.8578430  36.8475403  16.5961048  13.4965065
  35.4990994  17.2414813  13.7354159  30.1470423  23.5417497   5.5367864
  31.0497670  23.5741107   5.8534359  29.9207793  22.6117948   5.5514199
  31.9024025  22.2948484   2.1977942  30.9519656  22.2950345   2.0842315
  32.2056511  21.5481218   1.6813977  27.7928342   6.5007166  12.4561304
  28.6559803   6.1443970  12.6664628  27.2193752   6.1621060  13.1436708
  47.6376719  28.1309022   3.2623705  48.2755129  28.0115769   2.5587045
  47.5197562  29.0789866   3.3211657  44.4466425  28.0836450   3.1985229
  44.1084937  27.9677515   2.3105764  45.3156193  27.6827615   3.1786235
  44.9286208  29.2371302   9.1571435  44.9174849  28.8424100   8.2851939
  45.0906847  28.5037374   9.7505206  37.8517673  31.4323118   2.0266341
  38.6438965  31.0913943   1.6112640  38.0914323  31.5418093   2.9468494
  41.6493469  32.0208414   8.1050619  41.3583335  32.9254044   7.9897285
  42.2850454  32.0624941   8.8194688  42.5749676  29.3985262   4.6951979
  43.1713248  29.1741285   3.9808941  42.6324648  28.6570008   5.2977426
  46.6083354  31.7069829   5.1000413  46.3084077  32.6094868   4.9916220
  46.2634414  31.4402012   5.9521565  40.0595836  28.1583626   1.1337117
  39.1346332  28.0259840   1.3414809  40.3080249  28.9377845   1.6307059
  37.4204647  27.8016900   1.9680906  37.5497028  28.0551378   2.8820318
  36.7402098  28.3944608   1.6485561  44.0821364  25.6442015  10.7232747
  43.3054698  26.2035935  10.7135612  44.7211927  26.1298798  11.2447617
  42.3367736  28.4527468  10.2850714  43.0782420  28.9912512  10.0085538
  41.6304722  29.0793757  10.4422266  47.8123076  30.5956609   8.8822876
  48.2206432  30.1539019   8.1377508  47.0900337  30.0209236   9.1357069
  44.1654146  25.5329215   6.2556433  45.0115341  25.9568629   6.3991082
  44.1052783  24.8762840   6.9494996  47.3153591  23.1933584   7.9137606
  47.0714523  23.9475644   7.3771882  47.5913522  23.5718931   8.7484853
  49.2692054  29.7372196   6.5914872  49.4808949  30.3803956   5.9149253
  49.2221802  28.9034513   6.1236802  46.8718283  22.3490017   3.4951444
  46.0102762  22.6471270   3.7868182  46.8980718  22.5660416   2.5632477
  40.5803933  30.4403689   2.8405013  41.1505290  30.8690957   2.2022497
  41.1712045  30.1586274   3.5389199  41.0729100  25.6067116  11.0866024
  40.4427760  26.2883397  11.3201421  40.9665188  25.4950198  10.1419162
  36.3674072  25.2738912   2.0131948  35.5773126  25.5296441   1.5372059
  36.8585320  26.0887250   2.1183989  38.3188818  25.6383492  -1.0284575
  37.5219981  25.7502186  -0.5101079  38.0914410  25.9770144  -1.8943684
  44.1494485  32.1628195   6.9197940  44.2138918  32.6248602   7.7556111
  43.4405409  31.5325560   7.0480249  34.6511775  25.5269403   4.4446939
  34.9019814  26.4116413   4.7104515  35.1871324  25.3474004   3.6722031
  40.3509843  19.9087882  13.4491275  39.9576788  19.3554081  14.1238919
  41.1675983  20.2198461  13.8397793  43.2677804  21.3245761  11.0411532
  44.0087517  21.9252914  10.9615994  43.4995726  20.5823399  10.4829574
  38.4119142  26.5102129   9.3189761  38.2972657  25.6087386   9.6196860
  37.5563659  26.7565825   8.9674578  45.4910979  34.4519869  10.9177262
  45.0474834  33.6656247  10.5998167  46.1528193  34.6399019  10.2521153
  40.2498101  35.9815671   5.4437941  40.8005526  35.8532734   4.6714935
  39.4109576  36.2810560   5.0932833  47.5892217  34.7322669   8.9458663
  47.5710693  35.5531550   8.4538932  48.5112137  34.6076744   9.1708804
  44.0465272  32.2466798   9.7882172  44.5793608  31.4855087   9.5581480
  43.5179353  31.9540450  10.5306326  46.2931507  19.7231519   3.2825047
  45.7896303  19.6861655   2.4692852  46.5862114  20.6324262   3.3421703
  42.5374393  19.8070249   2.2891228  43.4027390  19.6113058   1.9297118
  42.6051902  19.5780601   3.2160585  40.1436712  22.0372457  -0.3392405
  40.7180464  21.8147639  -1.0719212  40.7307694  22.1061152   0.4136197
  45.6797120  25.3995640   2.7130312  44.7619681  25.6210587   2.5552000
  46.0957264  25.4741950   1.8542020  35.3046988  27.0151110  -1.1924851
  35.1071388  26.4220471  -1.9173784  34.7493652  26.7103320  -0.4748912
  43.2843712  26.9074217   0.9269742  43.3392322  25.9548053   0.8512219
  42.4734914  27.0633656   1.4111041  41.2236072  25.5251276  -1.3139879
  40.4103937  25.8245447  -0.9074687  41.7195066  25.1306965  -0.5965397
  46.8210284  25.9893101   7.5175015  47.1759671  26.2164574   8.3769481
  47.4682415  26.3211478   6.8952270  40.7150147  23.0969632   4.3021356
  41.3549526  22.9558391   3.6044319  39.8827677  22.8104145   3.9259958
  37.7178763  23.0669957  -0.9205657  37.9785580  23.9815290  -1.0296497
  38.5395935  22.5994399  -0.7709044  39.1903688  24.4807714   6.2493167
  39.8626742  24.2725076   5.6005816  38.3633475  24.2829800   5.8098400
  45.0929260  21.1069655   8.2658828  44.4457175  21.8059605   8.1723305
  45.8630276  21.5405799   8.6335076  48.5008058  31.3718507  11.3409381
  48.3493565  31.1429059  10.4239465  48.4912738  32.3289108  11.3540727
  45.2693395  28.9450420   6.3255648  46.1985455  29.0961579   6.1524615
  44.8484425  29.0334441   5.4704294  44.0681727  32.9701084   4.0954186
  43.9292812  32.6019869   4.9680124  43.2796323  33.4848724   3.9238143
  39.5931186  27.7550317   7.0095605  39.4550984  27.0230556   7.6107144
  40.5036109  27.6659217   6.7279792  42.2213486  27.4670276   6.4979284
  42.9313105  26.8263468   6.4565903  42.1782794  27.7183171   7.4205465
  50.2100265  34.4037630   9.4185863  50.1512811  33.7196850   8.7516446
  50.6119783  35.1456620   8.9666489  40.9342420  24.4535494   8.3174924
  40.3979777  24.0026233   8.9696520  40.3459129  24.5881403   7.5745388
  50.2117672  32.3677214   7.6499843  49.3244451  32.0303135   7.7726242
  50.7816223  31.6360245   7.8868608  31.8646819  28.7001305   0.9742894
  32.5517859  28.3863035   0.3863910  31.7094948  29.6042670   0.7010146
  36.6681541  23.5891502   5.4027918  36.5839730  22.9817171   4.6678328
  35.8464248  24.0800520   5.4037414  43.4240224  24.2162448   0.4969798
  43.0538012  23.6633489   1.1850703  43.9199317  23.6120582  -0.0555202
  41.2529423  34.6759943   7.5924816  41.9538882  35.3096426   7.7454210
  40.7824538  35.0174675   6.8320455  49.0530709  27.2304551   5.4177366
  48.4002159  27.4780458   4.7629819  49.4311089  26.4168689   5.0839843
  45.1018282  27.9724362  11.9043403  44.4258919  27.8718491  12.5745778
  45.9245916  27.8163576  12.3679400  36.8497141  34.2096298   4.5255918
  37.4350578  33.4639986   4.6583823  36.6521979  34.5200255   5.4092582
  31.4414795  26.7801899   3.2460362  31.4798895  26.2465489   4.0397480
  30.9355088  26.2537104   2.6271339  38.8205558  21.6266439   6.7422904
  38.8846884  22.4881270   6.3300302  38.7572678  21.0140441   6.0095262
  38.2957830  23.6989572  10.3895938  38.9229869  23.3166649  11.0033462
  37.4385749  23.4803774  10.7551631  48.6951939  34.1052547  11.9949674
  49.2391843  34.7182505  11.5004628  48.1138784  34.6632125  12.5116687
  35.0723373  25.5066001  -3.6785707  35.3676814  24.5976679  -3.7318653
  34.1711409  25.4853740  -4.0004705  38.6017620  23.5821997   2.3041842
  37.8804206  24.1957965   2.1649315  39.3910876  24.1179762   2.2258487
  41.4043934  20.9176424   8.5782493  41.9278335  21.1638720   9.3408803
  41.1856267  21.7496459   8.1585631  36.8011215  23.1880098  -3.5546382
  36.4723921  22.3077477  -3.7371276  37.1550585  23.1327767  -2.6669993
  42.6096479  21.8590119   6.2632164  42.2693299  21.0597932   6.6652844
  41.9035485  22.1591830   5.6908997  43.2612950  18.9439431   4.7159487
  44.0839020  18.4699910   4.5938377  43.5051014  19.7229915   5.2158173
  40.7851529  25.6358552   2.5251465  40.6396110  25.9498855   3.4175747
  40.3076733  26.2543452   1.9722364  42.6447912  22.6261100   2.5732355
  42.6309481  21.7302193   2.2364653  43.3620340  22.6331764   3.2070641
  44.4974043  23.0598440   4.6185482  44.2391821  23.9815511   4.6169813
  43.9659083  22.6628875   5.3085947  35.2597191  28.1763896   5.4639127
  34.7150659  28.9523704   5.5959401  36.1376541  28.5234701   5.3058248
  36.0463213  27.3033793   8.3569284  35.3044949  27.4516428   8.9433914
  35.7255958  27.5642058   7.4936033  43.9906876  36.8449771   8.1549674
  44.2994002  36.5998918   9.0272373  44.7882358  37.0496409   7.6668544
  34.6928432  33.1085548   1.3468612  33.8560340  32.6807722   1.1652613
  34.6652077  33.3017991   2.2839403  41.5325888  23.0207478  12.0509858
  41.5814043  23.8969600  11.6687627  42.0748402  22.4784871  11.4781501
  52.0180733  33.5648601  11.3310995  51.2276277  33.5472740  10.7915494
  51.7814088  34.1036895  12.0860031  52.1378608  30.4141067   8.6443723
  52.1876613  30.2491075   9.5859246  52.0292532  29.5468326   8.2541604
  49.4282371  26.3971995   9.9603030  50.3292233  26.2578460   9.6687028
  49.5030345  26.5626450  10.9001208  43.7625176  23.7738850   8.8056216
  42.8928485  24.0672416   8.5338805  43.9984656  24.3579295   9.5263480
  53.6396805  32.8338009   8.8885745  53.3481613  33.1967989   9.7249206
  53.0268936  32.1205017   8.7099077  51.8883993  27.9570623   7.3565803
  52.3638115  28.1498270   6.5484654  50.9649559  28.0129809   7.1109187
  46.4664210  19.9918467   6.3221637  46.9846154  20.7279494   5.9968125
  46.1119343  20.2982460   7.1568396  50.5885662  24.8336384   5.5894109
  51.5403085  24.9334481   5.6106333  50.4189113  24.0414652   6.0992193
  48.6100042  21.9191967   5.7753509  48.0149974  22.1996979   5.0799998
  48.3249739  22.4085868   6.5470251  44.7895764  30.9756302  12.2064269
  45.7098773  31.1534901  12.4004316  44.7545347  30.0312348  12.0543968
  34.0077929  26.1694896   1.1317544  33.6880713  25.3160204   0.8391918
  33.4611357  26.3843474   1.8875511  37.7857836  28.8857337   4.8487050
  38.0043846  29.8174445   4.8675084  38.1983610  28.5265311   5.6341854
  42.6585701  24.4590543  14.2389799  42.5582428  25.4084900  14.1701890
  42.4407243  24.1308782  13.3665869  33.8766189  29.7897807   3.1010665
  33.1829660  29.3751760   2.5880620  34.6239180  29.8318344   2.5044084
  42.5216971  27.8887682  13.0554861  42.0384053  28.6888042  13.2618750
  42.6077910  27.8995626  12.1022305  35.7902931  29.7216061   0.9776680
  35.7673619  29.8203749   0.0258563  36.1003568  30.5681212   1.2993846
  38.4490309  31.7792216   5.0923295  39.4033562  31.7476159   5.0253226
  38.2502833  31.3182840   5.9073521  39.0389691  30.3493332   7.6594092
  39.8582580  30.8437411   7.6828930  39.3126499  29.4325300   7.6311660
  34.2924605  24.6831466   8.3586289  34.9383469  24.1730420   8.8473515
  34.0841756  25.4200148   8.9329715  46.8177998  31.7512314  13.8578430
  47.6869157  31.9252966  13.4965065  46.3384749  32.5706731  13.7354159
  38.6322096  21.8299083  12.4561304  39.4953558  21.4735888  12.6664628
  38.0587507  21.4912978  13.1436708  51.1903597  35.2379800  13.4491275
  50.7970543  34.6845998  14.1238919  52.0069737  35.5490378  13.8397793
  54.1071558  36.6537679  11.0411532  54.8481271  37.2544832  10.9615994
  54.3389481  35.9115317  10.4829574  49.1351585  39.0281489  10.3895938
  49.7623624  38.6458567  11.0033462  48.2779504  38.8095691  10.7551631
  52.3719642  38.3499395  12.0509858  52.4207798  39.2261518  11.6687627
  52.9142156  37.8076788  11.4781501  53.4979456  39.7882460  14.2389799
  53.3976183  40.7376817  14.1701890  53.2800998  39.4600699  13.3665869
  45.1318360  40.0123384   8.3586289  45.7777223  39.5022338   8.8473515
  44.9235511  40.7492066   8.9329715  49.4715851  37.1591001  12.4561304
  50.3347312  36.8027806  12.6664628  48.8981261  36.8204896  13.1436708
   4.2775100  44.2874820  27.6631584   3.5238808  43.7182218  27.5075589
   4.4122641  44.2537484  28.6102219   0.6423712  45.7282808  27.9597699
   1.4770604  46.1672612  28.1235259   0.7782841  45.2521461  27.1405945
   4.6881515  44.4450430  30.3951829   5.4184903  44.1835718  30.9559532
   4.0788460  43.7079151  30.4353897   2.7696812  42.5858292  30.9926280
   2.0429976  42.4514257  30.3842771   2.3544099  42.8935121  31.7982998
   2.6945680  42.1136345  27.1203133   2.1345238  42.1829534  27.8934695
   2.0889183  41.9377330  26.4002629   3.8559946  48.0110701  31.8685197
   3.5124215  48.9012343  31.7924308   4.2238909  47.8212359  31.0054782
   5.6547612  47.2704261  26.9702935   5.9606489  46.4101624  26.6828850
   6.3800217  47.8621881  26.7701929   3.3601784  47.0702587  28.3931917
   3.6403537  46.4025776  29.0192344   4.1452390  47.2631682  27.8806581
   7.5203935  49.2478399  27.2599888   7.3228756  48.9393488  28.1443220
   8.1303641  49.9740038  27.3897818   3.2705315  46.1998125  24.9165506
   2.5037711  45.6456611  25.0622188   3.6816020  46.2719993  25.7779658
   4.2775101  21.2936942  14.3876891   3.5238810  20.7244340  14.2320895
   4.4122642  21.2599607  15.3347526   0.6423714  22.7344931  14.6843005
   1.4770605  23.1734735  14.8480566   0.7782843  22.2583584  13.8651251
   4.6881516  21.4512552  17.1197135   5.4184905  21.1897840  17.6804839
   4.0788462  20.7141274  17.1599203   2.7696813  19.5920415  17.7171586
   2.0429977  19.4576380  17.1088078   2.3544100  19.8997243  18.5228304
   2.6945681  19.1198468  13.8448439   2.1345239  19.1891657  14.6180001
   2.0889184  18.9439452  13.1247935   4.2801700  35.7954982  16.5378395
   4.9180109  35.6761729  15.8341735   4.1622542  36.7435826  16.5966347
   1.0891406  35.7482410  16.4739920   0.7509917  35.6323474  15.5860455
   1.9581174  35.3473575  16.4540926   1.5711189  36.9017262  22.4326125
   1.5599830  36.5070060  21.5606629   1.7331828  36.1683334  23.0259897
   3.8342968  33.5206436  13.6131603   4.6206057  33.1025859  13.2622020
   4.0981672  34.4252528  13.7813251   9.2351395  33.4581669  14.5164582
   9.9676567  32.8880886  14.7502411   8.4790751  33.0703269  14.9571087
   6.7576815  27.1703243  18.9759190   6.4260140  28.0398654  18.7520405
   6.1622429  26.8539527  19.6553221   3.2508335  39.3715789  18.3755103
   2.9509058  40.2740828  18.2670910   2.9059395  39.1047972  19.2276256
   6.6505479  31.8898329  16.0552540   5.7422356  31.8213737  15.7611301
   6.5993075  32.3670274  16.8834366   8.5167125  30.0914767  17.8330414
   7.8741505  30.3847301  17.1870209   8.0122054  29.9767688  18.6383611
   6.1707289  33.8377941   8.5216273   7.0825145  34.0705327   8.3463971
   5.6616936  34.4214985   7.9591352   4.4548057  38.2602568  22.1577566
   4.8631413  37.8184979  21.4132198   3.7325318  37.6855196  22.4111759
   0.8079127  33.1975175  19.5311123   1.6540322  33.6214589  19.6745772
   0.7477764  32.5408800  20.2249686   4.7776871  38.8203759  15.9129855
   4.1485734  38.9849473  15.2105923   4.3902533  39.2345369  16.6840819
   8.6566103  39.7558197  13.2674219   7.9717141  40.1357098  12.7171252
   8.7409952  40.3653524  14.0006166   3.9578572  30.8579544  21.1892297
   3.7139504  31.6121604  20.6526572   4.2338502  31.2364891  22.0239544
   5.9117035  37.4018156  19.8669562   6.1233930  38.0449916  19.1903943
   5.8646783  36.5680472  19.3991492   3.5143264  30.0135977  16.7706134
   2.6527743  30.3117230  17.0622872   3.5405698  30.2306375  15.8387167
   7.0262863  40.2790111  18.0391919   7.8480306  39.8770299  17.7574601
   7.0225266  40.1758346  18.9908035  15.1168856  36.6228860  14.3876891
  14.3632564  36.0536258  14.2320895  15.2516397  36.5891524  15.3347526
   2.1335960  42.1165829  24.1931952   1.6899814  41.3302207  23.8752857
   2.7953174  42.3044979  23.5275843   4.2317198  42.3968629  22.2213354
   4.2135674  43.2177510  21.7293623   5.1537118  42.2722704  22.4463495
   3.8559947  25.0172824  18.5930504   3.5124217  25.9074466  18.5169614
   4.2238910  24.8274482  17.7300089   2.9356488  27.3877479  16.5579737
   2.4321283  27.3507614  15.7447542   3.2287095  28.2970222  16.6176394
   8.7944504  37.7613790   9.0356112   8.0173947  37.4224949   8.5911274
   9.4735985  37.7666413   8.3611077   3.6096533  32.8808527   8.9262720
   3.3046669  33.1954676   9.7772863   4.5626975  32.9589947   8.9690053
   7.0335811  37.2347771  15.6922720   6.3759486  37.9247032  15.7802849
   7.8376210  37.6244203  16.0356707   5.8441270  35.5892144  13.7426662
   6.3573152  36.2222136  14.2448372   6.4942494  34.9893339  13.3770022
   2.3222101  33.0641599  15.9885003   1.4044662  33.2856546  15.8306691
   2.7382244  33.1387910  15.1296710   3.1057148  34.4633015  11.1187683
   3.8528967  34.9754412  10.8094805   3.3748738  34.1417068  11.9792076
   6.6103066  40.5698145  11.8705805   6.1565393  39.7289055  11.9270995
   5.9797033  41.2059544  12.2080585   5.5535986  31.4990131  13.1006472
   4.8158742  30.9867517  13.4316715   5.8062759  31.0590513  12.2889749
   5.0536005  42.4074642  12.8055623   5.3458980  42.9679699  12.0867988
   5.5634626  42.7003203  13.5608782   5.6547613  24.2766383  13.6948241
   5.9606490  23.4163747  13.4074156   6.3800218  24.8684003  13.4947235
   3.4635264  33.6539060  20.7929705   3.8184652  33.8810534  21.6524171
   4.1107396  33.9857437  20.1706961   9.1933001  36.7757496  11.4979034
   9.0550900  36.9659092  10.5700223   8.8369220  37.5376879  11.9547085
   9.2202381  38.8434023  16.5090306   9.6538888  38.7509312  17.3573360
   9.9333962  38.8191524  15.8710322   2.9530276  42.4436118  18.0423406
   3.0067298  43.0127054  18.8101122   2.0845057  42.6138003  17.6777444
  10.0817930  38.8857724  19.0423191  10.2753820  39.7903535  19.2882466
   9.9818549  38.4265143  19.8761776   1.7354241  28.7715615  21.5413519
   1.0882156  29.4705564  21.4477995   2.5055257  29.2051759  21.9089767
   5.1433039  39.0364467  24.6164072   4.9918546  38.8075018  23.6994155
   5.1337719  39.9935068  24.6295417   1.9118376  36.6096380  19.6010338
   2.8410436  36.7607539  19.4279306   1.4909406  36.6980400  18.7458985
   2.2611922  40.0128647  14.7597714   1.9261755  39.9729417  15.6555364
   1.7615868  39.3473363  14.2868124   6.8525246  42.0683589  22.6940554
   6.7937792  41.3842809  22.0271137   7.2544764  42.8102579  22.2421180
   6.8542653  40.0323173  20.9254533   5.9669432  39.6949095  21.0480932
   7.4241204  39.3006205  21.1623299   3.4830236  29.7391025  14.0452803
   3.9798936  28.9860987  13.7253874   2.7117218  29.7755342  13.4796013
  11.3359994  35.4431391  15.6871095  11.3249870  36.3256106  15.3165028
  10.4677373  35.0902941  15.4925632   2.8442490  44.5911460  20.0473935
   3.5570462  45.2258924  19.9749837   2.3532519  44.6875326  19.2313937
   4.5660017  38.4962712  11.6191227   3.6316296  38.6164175  11.4495931
   4.7436685  37.5935179  11.3551237   7.9532568  34.3380032  12.1541261
   8.4193020  35.1708023  12.0801564   8.4040069  33.8725013  12.8586519
   6.0208799  40.6823853   9.1527413   6.2968643  40.5680447  10.0621287
   5.1513298  40.2841338   9.1139586   5.9249231  26.7060619  16.1932162
   5.0112311  26.9364845  16.3614369   6.3542332  26.7899063  17.0446195
   5.6955689  34.8950511  18.6932056   5.0427140  35.1426418  18.0384509
   6.0736069  34.0814649  18.3594534   1.7443262  35.6370322  25.1798093
   1.0683899  35.5364451  25.8500469   2.5670896  35.4809535  25.6434091
   5.3376920  41.7698507  25.2704364   5.8816824  42.3828465  24.7759319
   4.7563764  42.3278085  25.7871377   3.6234433  44.8919225  16.4019392
   3.4985572  44.0908964  15.8930337   4.2813524  45.3865418  15.9133362
   5.6869341  42.6928245  18.0298942   4.7399677  42.5733596  17.9577268
   6.0352114  41.8050743  18.1125203   2.6915774  42.4880961  14.2303294
   2.5440737  41.5597668  14.4110864   3.5169268  42.5101052  13.7460369
   6.2949896  43.3109520  15.3168167   7.2196444  43.1052381  15.1792618
   6.1265200  43.0625921  16.2257508   2.6877289  30.3418799   9.2235411
   2.9040903  31.2243436   8.9224239   2.2071356  29.9505012   8.4941053
   1.1399024  30.7244400  17.8940173   0.8816801  31.6461471  17.8924503
   0.6084064  30.3274835  18.5840637   6.0845212  43.8295187  10.6730258
   6.2582090  43.2641610   9.9204111   6.5774104  44.6296082  10.4909748
   1.5600979  26.8576350  14.2541335   1.5822676  26.9215684  13.2993315
   1.9769038  26.0180859  14.4481841  11.9384604  36.5931610  12.2920558
  12.3815750  35.8438935  11.8939681  11.0611114  36.5841746  11.9094290
   8.9711808  40.5961657   9.3014487   9.4963132  40.9348930   8.5763807
   8.8834161  39.6608672   9.1177622   0.6331857  44.5095731  21.4304364
   0.9418983  44.2644877  22.3027063   1.4307339  44.7142369  20.9423234
   8.6605714  41.2294561  24.6065685   7.8701258  41.2118700  24.0670185
   8.4239069  41.7682854  25.3614722   8.7803589  38.0787027  21.9198414
   8.8301594  37.9137034  22.8613936   8.6717512  37.2114286  21.5296294
   6.0707351  34.0617955  23.2357720   6.9717214  33.9224420  22.9441718
   6.1455326  34.2272410  24.1755898  10.2821786  40.4983969  22.1640435
   9.9906594  40.8613949  23.0003896   9.6693917  39.7850977  21.9853767
  11.4817468  38.0636848  14.6843005  12.3164360  38.5026652  14.8480566
  11.6176597  37.5875502  13.8651251   8.5308974  35.6216583  20.6320493
   9.0063096  35.8144229  19.8239345   7.6074540  35.6775769  20.3863877
   3.1089191  27.6564427  19.5976327   3.6271134  28.3925454  19.2722816
   2.7544323  27.9628420  20.4323086   3.3601785  24.0764709  15.1177224
   3.6403539  23.4087898  15.7437650   4.1452392  24.2693805  14.6051888
   7.2310643  32.4982343  18.8648799   8.1828066  32.5980441  18.8861023
   7.0614094  31.7060612  19.3746883   5.2525023  29.5837926  19.0508200
   4.6574955  29.8642939  18.3554688   4.9674719  30.0731827  19.8224941
   9.7098721  35.7188463  17.9791098   9.6775041  34.7804464  18.1650782
  10.3199345  35.7972500  17.2456923   9.8593209  32.5099506  18.0249382
   9.3432258  31.7257963  17.8379310  10.7433158  32.1818223  18.1895901
   7.5203936  26.2540522  13.9845194   7.3228757  25.9455610  14.8688526
   8.1303642  26.9802161  14.1143124  15.5275271  36.7804470  17.1197135
  16.2578659  36.5189758  17.6804839  14.9182216  36.0433192  17.1599203
  13.6090568  34.9212332  17.7171586  12.8823731  34.7868297  17.1088078
  13.1937855  35.2289161  18.5228304   1.4320744  38.6402262  25.4818959
   2.3523754  38.8180861  25.6759006   1.3970327  37.6958307  25.3298659
   3.2777583  26.1349429  11.7341726   3.8308622  26.5544882  12.3931749
   3.5147669  25.2085177  11.7764682   6.6556390  28.2449954  11.2420390
   6.0755059  28.9034758  10.8598442   6.3892323  27.4227299  10.8307807
   5.1059956  27.6455012  13.4441710   5.6059735  27.7571546  12.6356029
   5.7495564  27.3416065  14.0842519   5.4381268  30.4050044  10.2976738
   4.5507123  30.6899695  10.0796933   5.8535257  30.2443808   9.4504015
   8.7895804  30.4296565  14.0131077   9.5656194  30.9193018  14.2855694
   8.0643938  30.8554620  14.4702947  11.2268363  31.1424185  15.0705018
  11.8212854  30.9019921  14.3598326  11.2994947  30.4231315  15.6978554
   5.4122292  35.9204580  10.5127028   5.3557493  36.3773132   9.6734661
   5.9650634  35.1595265  10.3349871   9.2227098  31.7094312  11.3377148
   8.9664032  31.3090948  12.1685356   8.5979966  32.4238106  11.2127287
  13.5339436  34.4490385  13.8448439  12.9738994  34.5183575  14.6180001
  12.9282939  34.2731370  13.1247935   6.1457071  37.1109362   7.8079558
   6.0905875  36.9453633   6.8668002   5.5203126  37.8185394   7.9641747
   3.4602978  39.4158273  27.1333120   4.3294138  39.5898926  26.7719755
   2.9809730  40.2352690  27.0108850   3.2705316  23.2060247  11.6410813
   2.5037712  22.6518734  11.7867495   3.6816021  23.2782116  12.5024964
  15.1195454  51.1246899  16.5378395  15.7573864  51.0053647  15.8341735
  15.0016297  52.0727743  16.5966347  11.9285160  51.0774327  16.4739920
  11.5903672  50.9615392  15.5860455  12.7974928  50.6765493  16.4540926
  14.6736723  48.8498353  13.6131603  15.4599812  48.4317776  13.2622020
  14.9375427  49.7544445  13.7813251  20.0745150  48.7873586  14.5164582
  20.8070322  48.2172803  14.7502411  19.3184505  48.3995187  14.9571087
  11.6921269  51.2100828  11.7127924  11.3279477  50.6831449  12.4240845
  12.5488385  50.8199297  11.5394409  17.5970570  42.4995161  18.9759190
  17.2653895  43.3690571  18.7520405  17.0016183  42.1831445  19.6553221
  17.4899233  47.2190247  16.0552540  16.5816111  47.1505655  15.7611301
  17.4386829  47.6962192  16.8834366  11.5640099  48.6379892  23.9987437
  10.7873433  49.1973812  23.9890302  12.2030662  49.1236675  24.5202308
  19.3560880  45.4206685  17.8330414  18.7135260  45.7139218  17.1870209
  18.8515808  45.3059605  18.6383611  17.0101043  49.1669858   8.5216273
  17.9218899  49.3997245   8.3463971  16.5010690  49.7506902   7.9591352
  11.6472881  48.5267093  19.5311123  12.4934076  48.9506506  19.6745772
  11.5871519  47.8700717  20.2249686  14.7972326  46.1871461  21.1892297
  14.5533258  46.9413522  20.6526572  15.0732257  46.5656809  22.0239544
  16.7510789  52.7310074  19.8669562  16.9627684  53.3741834  19.1903943
  16.7040537  51.8972390  19.3991492  14.3537018  45.3427894  16.7706134
  13.4921497  45.6409148  17.0622872  14.3799453  45.5598293  15.8387167
   8.5547835  48.6004994  24.3620714   7.9246496  49.2821275  24.5956111
   8.4483923  48.4888075  23.4173853  25.9562610  51.9520778  14.3876891
  25.2026319  51.3828176  14.2320895  26.0910151  51.9183442  15.3347526
   7.8328578  42.9025760  26.7245965   7.4395523  42.3491958  27.3993610
   8.6494718  43.2136338  27.1152483  10.7496539  44.3183639  24.3166222
  11.4906252  44.9190792  24.2370685  10.9814462  43.5761277  23.7584265
  14.6953702  40.3464742  18.5930504  14.3517971  41.2366383  18.5169614
  15.0632664  40.1566399  17.7300089  12.2451096  45.1823054  12.1588177
  11.3892692  44.7929904  11.9793816  12.6578047  45.2615014  11.2987963
  13.7750242  42.7169397  16.5579737  13.2715038  42.6799532  15.7447542
  14.0680849  43.6262140  16.6176394  10.0193128  42.8008127  15.5645919
  10.8846125  42.6050935  15.2051808  10.0870637  42.5718478  16.4915275
  19.6338259  53.0905707   9.0356112  18.8567701  52.7516867   8.5911274
  20.3129740  53.0958331   8.3611077  14.4490288  48.2100445   8.9262720
  14.1440423  48.5246594   9.7772863  15.4020730  48.2881865   8.9690053
  17.8729566  52.5639689  15.6922720  17.2153240  53.2538950  15.7802849
  18.6769965  52.9536121  16.0356707   7.6255447  45.0310335  12.9362286
   8.1999199  44.8085516  12.2035478   8.2126430  45.0999029  13.6890887
  16.6835024  50.9184061  13.7426662  17.1966906  51.5514053  14.2448372
  17.3336248  50.3185257  13.3770022   9.9278115  41.9051583  11.6637355
   9.2742527  41.5900601  11.0393970   9.8858589  41.2827324  12.3897178
  13.1615855  48.3933517  15.9885003  12.2438417  48.6148464  15.8306691
  13.5775999  48.4679827  15.1296710  13.9450903  49.7924933  11.1187683
  14.6922722  50.3046330  10.8094805  14.2142493  49.4708985  11.9792076
  16.3929740  46.8282049  13.1006472  15.6552497  46.3159435  13.4316715
  16.6456514  46.3882430  12.2889749  16.4941367  39.6058301  13.6948241
  16.8000244  38.7455664  13.4074156  17.2193972  40.1975921  13.4947235
  10.7662447  49.9012094  14.2024432  10.8211057  48.9485930  14.1266909
   9.9553649  50.0571533  14.6865731   8.7054807  48.5189154  11.9614811
   7.8922673  48.8183324  12.3680003   9.2013801  48.1244842  12.6789294
  14.3029019  48.9830978  20.7929705  14.6578407  49.2102451  21.6524171
  14.9501150  49.3149355  20.1706961  20.0326756  52.1049414  11.4979034
  19.8944654  52.2951010  10.5700223  19.6762975  52.8668797  11.9547085
   8.1968882  46.0907509  17.5776046   8.8368261  45.9496268  16.8799010
   7.3646412  45.8042023  17.2014648  20.0596135  54.1725941  16.5090306
  20.4932642  54.0801230  17.3573360  20.7727716  54.1483442  15.8710322
   6.6722424  47.4745591  19.5247858   7.3445477  47.2662954  18.8760507
   5.8452210  47.2767677  19.0853090  20.9211685  54.2149642  19.0423191
  21.1147575  55.1195452  19.2882466  20.8212303  53.7557061  19.8761776
  12.5747996  44.1007532  21.5413519  11.9275911  44.7997482  21.4477995
  13.3449011  44.5343676  21.9089767  12.7512130  51.9388297  19.6010338
  13.6804190  52.0899457  19.4279306  12.3303160  52.0272318  18.7458985
   9.7032222  50.4608154  19.7733974  10.4131840  49.8201346  19.7320593
   9.6601530  50.7121049  20.6960155   8.4161156  47.4473372  21.5929614
   7.8798513  46.9964110  22.2451210   7.8277864  47.5819280  20.8500078
   4.1500277  46.5829379  18.6782608   4.0658465  45.9755049  17.9433018
   3.3282983  47.0738398  18.6792105  14.3223991  45.0682943  14.0452803
  14.8192690  44.3152905  13.7253874  13.5510972  45.1047259  13.4796013
  22.1753748  50.7723308  15.6871095  22.1643624  51.6548024  15.3165028
  21.3071127  50.4194859  15.4925632  10.9058959  47.2100326  13.7724488
  10.5356747  46.6571366  14.4605394  11.4018052  46.6058459  13.2199488
  18.7926323  49.6671949  12.1541261  19.2586775  50.4999941  12.0801564
  19.2433823  49.2016931  12.8586519  16.7642985  42.0352536  16.1932162
  15.8506065  42.2656763  16.3614369  17.1936087  42.1190980  17.0446195
  16.5349444  50.2242428  18.6932056  15.8820894  50.4718336  18.0384509
  16.9129824  49.4106566  18.3594534  12.5837017  50.9662239  25.1798093
  11.9077654  50.8656369  25.8500469  13.4064651  50.8101453  25.6434091
   6.3024293  44.6204317  20.0177594   6.3665620  45.4819147  19.6054992
   6.2391413  44.0078318  19.2849953   5.7776566  46.6927449  23.6650628
   6.4048604  46.3104526  24.2788153   4.9204484  46.4741651  24.0306321
   6.0836355  46.5759875  15.5796532   5.3622941  47.1895842  15.4404005
   6.8729611  47.1117640  15.5013178   8.8862669  43.9114301  21.8537184
   9.4097071  44.1576598  22.6163493   8.6675002  44.7434336  21.4340321
  10.0915214  44.8527996  19.5386854   9.7512034  44.0535809  19.9407534
   9.3854220  45.1529707  18.9663687  10.7431686  41.9377309  17.9914177
  11.5657755  41.4637787  17.8693067  10.9869749  42.7167793  18.4912863
  13.5271043  45.6710716   9.2235411  13.7434657  46.5535354   8.9224239
  13.0465110  45.2796930   8.4941053   8.2670264  48.6296429  15.8006156
   8.1214845  48.9436733  16.6930437   7.7895468  49.2481330  15.2477054
  10.1266647  45.6198977  15.8487045  10.1128216  44.7240071  15.5119343
  10.8439075  45.6269641  16.4825331  11.9792778  46.0536318  17.8940173
  11.7210556  46.9753388  17.8924503  11.4477818  45.6566752  18.5840637
   9.5303543  44.5013358  11.1174615   9.6519454  43.5730004  11.3165503
   9.2405586  44.5152044  10.2052931  12.3994734  42.1868268  14.2541335
  12.4216430  42.2507601  13.2993315  12.8162793  41.3472777  14.4481841
  22.7778358  51.9223528  12.2920558  23.2209504  51.1730853  11.8939681
  21.9004868  51.9133664  11.9094290   9.0144623  46.0145355  25.3264548
   9.0632778  46.8907478  24.9442318   9.5567137  45.4722748  24.7536191
  19.6197344  53.4078945  21.9198414  19.6695348  53.2428952  22.8613936
  19.5111267  52.5406204  21.5296294  16.9101106  49.3909873  23.2357720
  17.8110969  49.2516338  22.9441718  16.9849080  49.5564328  24.1755898
  11.2443911  46.7676728  22.0810907  10.3747221  47.0610294  21.8093495
  11.4803392  47.3517172  22.8018170  22.3211223  53.3928766  14.6843005
  23.1558114  53.8318570  14.8480566  22.4570351  52.9167419  13.8651251
  19.3702729  50.9508501  20.6320493  19.8456850  51.1436147  19.8239345
  18.4468294  51.0067687  20.3863877  13.9482945  42.9856344  19.5976327
  14.4664889  43.7217371  19.2722816  13.5938078  43.2920338  20.4323086
  14.1995539  39.4056627  15.1177224  14.4797293  38.7379816  15.7437650
  14.9846146  39.5985723  14.6051888  18.0704398  47.8274261  18.8648799
  19.0221821  47.9272359  18.8861023  17.9007848  47.0352530  19.3746883
  16.0918777  44.9129844  19.0508200  15.4968709  45.1934857  18.3554688
  15.8068474  45.4023745  19.8224941  20.5492475  51.0480381  17.9791098
  20.5168796  50.1096381  18.1650782  21.1593099  51.1264417  17.2456923
  20.6986964  47.8391424  18.0249382  20.1826013  47.0549881  17.8379310
  21.5826912  47.5110141  18.1895901  18.3597691  41.5832440  13.9845194
  18.1622512  41.2747528  14.8688526  18.9697396  42.3094079  14.1143124
  26.3669025  52.1096387  17.1197135  27.0972414  51.8481676  17.6804839
  25.7575971  51.3725109  17.1599203  24.4484322  50.2504250  17.7171586
  23.7217486  50.1160215  17.1088078  24.0331609  50.5581079  18.5228304
  12.1880789  42.3863300  10.1117429  11.3781517  42.0410385  10.4872675
  12.8765206  42.0770843  10.7005041  14.1171337  41.4641347  11.7341726
  14.6702376  41.8836800  12.3931749  14.3541424  40.5377095  11.7764682
  10.1404437  47.4528420  27.5144490  10.0401164  48.4022777  27.4456581
   9.9225979  47.1246659  26.6420560  17.4950145  43.5741872  11.2420390
  16.9148814  44.2326676  10.8598442  17.2286077  42.7519216  10.8307807
  15.9453711  42.9746929  13.4441710  16.4453489  43.0863464  12.6356029
  16.5889319  42.6707982  14.0842519  16.2775023  45.7341962  10.2976738
  15.3900878  46.0191613  10.0796933  16.6929012  45.5735725   9.4504015
  19.6289559  45.7588483  14.0131077  20.4049949  46.2484935  14.2855694
  18.9037693  46.1846537  14.4702947  22.0662117  46.4716102  15.0705018
  22.6606608  46.2311838  14.3598326  22.1388701  45.7523233  15.6978554
  16.2516046  51.2496498  10.5127028  16.1951248  51.7065049   9.6734661
  16.8044389  50.4887183  10.3349871  20.0620852  47.0386230  11.3377148
  19.8057786  46.6382866  12.1685356  19.4373720  47.7530024  11.2127287
  24.3733190  49.7782303  13.8448439  23.8132748  49.8475492  14.6180001
  23.7676693  49.6023288  13.1247935  16.9850826  52.4401279   7.8079558
  16.9299629  52.2745551   6.8668002  16.3596881  53.1477312   7.9641747
  10.2946951  41.9409388   7.3864876  10.2825621  42.8851228   7.5433147
  11.1870373  41.7579534   7.0924337  14.1099071  38.5352165  11.6410813
  13.3431466  37.9810652  11.7867495  14.5209775  38.6074034  12.5024964
   6.1140832  44.8236961  25.7315994   6.9772293  44.4673766  25.9419319
   5.5406242  44.4850856  26.4191398  25.5347456  55.6756659  18.5930504
  25.1911726  56.5658301  18.5169614  25.9026419  55.4858317  17.7300089
  27.3335122  54.9350219  13.6948241  27.6393999  54.0747582  13.4074156
  28.0587727  55.5267839  13.4947235  25.0389294  54.7348545  15.1177224
  25.3191048  54.0671734  15.7437650  25.8239901  54.9277640  14.6051888
  29.1991445  56.9124357  13.9845194  29.0016266  56.6039446  14.8688526
  29.8091151  57.6385996  14.1143124  24.9492825  53.8644083  11.6410813
  24.1825221  53.3102569  11.7867495  25.3603530  53.9365951  12.5024964
   5.3376921  18.7760629  11.9949670   5.8816825  19.3890587  11.5004625
   4.7563766  19.3340208  12.5116684   8.6605715  18.2356683  11.3310992
   7.8701259  18.2180822  10.7915491   8.4239070  18.7744977  12.0860028
  10.2821787  17.5046091   8.8885742   9.9906595  17.8676072   9.7249203
   9.6693918  16.7913099   8.7099074   3.4602980  16.4220396  13.8578427
   4.3294139  16.5961048  13.4965062   2.9809731  17.2414813  13.7354156
  15.1195455  28.1309022   3.2623702  15.7573865  28.0115769   2.5587042
  15.0016298  29.0789866   3.3211654  11.9285162  28.0836450   3.1985226
  11.5903673  27.9677515   2.3105761  12.7974930  27.6827615   3.1786232
  12.4104945  29.2371302   9.1571432  12.3993585  28.8424100   8.2851935
  12.5725584  28.5037374   9.7505203   9.1312206  32.0208414   8.1050616
   8.8402072  32.9254044   7.9897282   9.7669190  32.0624941   8.8194685
  10.0568413  29.3985262   4.6951975  10.6531985  29.1741285   3.9808938
  10.1143384  28.6570008   5.2977423  20.0745151  25.7935709   1.2409888
  20.8070323  25.2234926   1.4747718  19.3184507  25.4057309   1.6816394
  17.5970571  19.5057283   5.7004497  17.2653896  20.3752694   5.4765712
  17.0016185  19.1893567   6.3798527  14.0902091  31.7069829   5.1000409
  13.7902814  32.6094868   4.9916217  13.7453150  31.4402012   5.9521562
  17.4899235  24.2252369   2.7797847  16.5816112  24.1567778   2.4856608
  17.4386830  24.7024314   3.6079672  11.5640100  25.6442015  10.7232744
  10.7873434  26.2035935  10.7135609  12.2030663  26.1298798  11.2447614
  19.3560881  22.4268808   4.5575721  18.7135261  22.7201341   3.9115515
  18.8515809  22.3121728   5.3628917   9.8186473  28.4527468  10.2850711
  10.5601157  28.9912512  10.0085535   9.1123458  29.0793757  10.4422263
  15.2941812  30.5956609   8.8822873  15.7025168  30.1539019   8.1377505
  14.5719074  30.0209236   9.1357065  11.6472882  25.5329215   6.2556430
  12.4934078  25.9568629   6.3991079  11.5871520  24.8762840   6.9494993
  15.6170627  31.1557799   2.6375161  14.9879489  31.3203513   1.9351229
  15.2296289  31.5699409   3.4086125  19.4959859  32.0912237  -0.0080475
  18.8110897  32.4711139  -0.5583441  19.5803708  32.7007564   0.7251473
  14.7972328  23.1933584   7.9137603  14.5533260  23.9475644   7.3771879
  15.0732258  23.5718931   8.7484850  16.7510790  29.7372196   6.5914869
  16.9627686  30.3803956   5.9149250  16.7040539  28.9034513   6.1236799
   8.0622670  30.4403689   2.8405010   8.6324027  30.8690957   2.2022494
   8.6530782  30.1586274   3.5389195   8.5547836  25.6067116  11.0866021
   7.9246497  26.2883397  11.3201418   8.4483924  25.4950198  10.1419159
  17.8656618  32.6144152   4.7637226  18.6874062  32.2124339   4.4819908
  17.8619021  32.5112386   5.7153342  11.6313222  32.1628195   6.9197937
  11.6957654  32.6248602   7.7556108  10.9224146  31.5325560   7.0480246
  25.9562611  28.9582900   1.1122198  25.2026320  28.3890298   0.9566202
  26.0910153  28.9245565   2.0592832   7.8328579  19.9087882  13.4491272
   7.4395525  19.3554081  14.1238916   8.6494719  20.2198461  13.8397790
  10.7496540  21.3245761  11.0411529  11.4906253  21.9252914  10.9615991
  10.9814463  20.5823399  10.4829571   5.8937878  26.5102129   9.3189758
   5.7791393  25.6087386   9.6196857   5.0382396  26.7565825   8.9674575
  12.9729716  34.4519869  10.9177259  12.5293570  33.6656247  10.5998163
  13.6346929  34.6399019  10.2521150  15.0710954  34.7322669   8.9458660
  15.0529429  35.5531550   8.4538929  15.9930874  34.6076744   9.1708801
  11.5284008  32.2466798   9.7882169  12.0612345  31.4855087   9.5581477
  10.9998089  31.9540450  10.5306323  17.8729567  29.5701811   2.4168027
  17.2153241  30.2601073   2.5048156  18.6769966  29.9598243   2.7602013
  16.6835026  27.9246184   0.4671969  17.1966907  28.5576176   0.9693678
  17.3336249  27.3247380   0.1015329  17.4496822  32.9052185  -1.4048889
  16.9959149  32.0643095  -1.3483698  16.8190789  33.5413584  -1.0674109
  15.8929761  34.7428682  -0.4699071  16.1852735  35.3033739  -1.1886705
  16.4028382  35.0357243   0.2854089  14.3029020  25.9893101   7.5175012
  14.6578408  26.2164574   8.3769478  14.9501151  26.3211478   6.8952267
  20.0326757  29.1111537  -1.7775659  19.8944656  29.3013133  -2.7054470
  19.6762976  29.8730919  -1.3207608  20.0596137  31.1788064   3.2335612
  20.4932643  31.0863353   4.0818666  20.7727717  31.1545564   2.5955628
  13.7924032  34.7790158   4.7668713  13.8461054  35.3481094   5.5346429
  12.9238813  34.9492043   4.4022750  20.9211686  31.2211764   5.7668498
  21.1147576  32.1257575   6.0127773  20.8212304  30.7619183   6.6007083
  12.5747997  21.1069655   8.2658825  11.9275912  21.8059605   8.1723302
  13.3449012  21.5405799   8.6335073  15.9826795  31.3718507  11.3409378
  15.8312301  31.1429059  10.4239462  15.9731474  32.3289108  11.3540723
  12.7512131  28.9450420   6.3255645  13.6804191  29.0961579   6.1524612
  12.3303161  29.0334441   5.4704291  11.5500463  32.9701084   4.0954182
  11.4111549  32.6019869   4.9680121  10.7615059  33.4848724   3.9238140
  13.1005678  32.3482687   1.4843020  12.7655511  32.3083457   2.3800670
  12.6009624  31.6827403   1.0113430   7.0749922  27.7550317   7.0095601
   6.9369720  27.0230556   7.6107140   7.9854846  27.6659217   6.7279789
   9.7032223  27.4670276   6.4979281  10.4131841  26.8263468   6.4565899
   9.6601531  27.7183171   7.4205462  17.6919001  34.4037630   9.4185860
  17.6331548  33.7196850   8.7516443  18.0938520  35.1456620   8.9666486
   8.4161157  24.4535494   8.3174921   7.8798514  24.0026233   8.9696517
   7.8277865  24.5881403   7.5745385  17.6936409  32.3677214   7.6499840
  16.8063188  32.0303135   7.7726239  18.2634960  31.6360245   7.8868605
  11.2237562  37.0278666   4.6161083  11.1507734  37.8333637   5.1280388
  10.7814955  37.2270632   3.7909105  22.1753749  27.7785431   2.4116402
  22.1643626  28.6610146   2.0410335  21.3071129  27.4256982   2.2170939
  13.6836246  36.9265500   6.7719242  14.3964218  37.5612965   6.6995143
  13.1926274  37.0229366   5.9559244   8.7348159  34.6759943   7.5924813
   9.4357619  35.3096426   7.7454207   8.2643274  35.0174675   6.8320452
  16.5349445  27.2304551   5.4177363  15.8820895  27.4780458   4.7629816
  16.9129825  26.4168689   5.0839840  12.5837018  27.9724362  11.9043400
  11.9077655  27.8718491  12.5745775  13.4064652  27.8163576  12.3679397
  11.3259801  39.2791289   6.1401016  11.8778109  39.4422911   6.9050101
  11.6665995  39.8695727   5.4681041   5.7776567  23.6989572  10.3895935
   6.4048606  23.3166649  11.0033459   4.9204486  23.4803774  10.7551628
  16.1770675  34.1052547  11.9949670  16.7210579  34.7182505  11.5004625
  15.5957520  34.6632125  12.5116684  14.4628188  37.2273265   3.1264698
  14.3379328  36.4263005   2.6175644  15.1207279  37.7219458   2.6378668
  16.5263097  35.0282285   4.7544248  15.5793432  34.9087636   4.6822575
  16.8745870  34.1404783   4.8370510   8.8862670  20.9176424   8.5782490
   9.4097072  21.1638720   9.3408800   8.6675003  21.7496459   8.1585628
  13.5309530  34.8235001   0.9548601  13.3834492  33.8951709   1.1356171
  14.3563024  34.8455092   0.4705676  17.1343652  35.6463560   2.0413473
  18.0590199  35.4406421   1.9037924  16.9658955  35.3979961   2.9502815
  10.0915215  21.8590119   6.2632161   9.7512036  21.0597932   6.6652841
   9.3854221  22.1591830   5.6908994  11.9792779  23.0598440   4.6185479
  11.7210557  23.9815511   4.6169810  11.4477820  22.6628875   5.3085944
  16.9238968  36.1649227  -2.6024435  17.0975846  35.5995650  -3.3550583
  17.4167859  36.9650122  -2.7844945   2.7415928  28.1763896   5.4639124
   2.1969396  28.9523704   5.5959398   3.6195278  28.5234701   5.3058245
  22.7778359  28.9285650  -0.9834136  23.2209505  28.1792976  -1.3815012
  21.9004870  28.9195787  -1.3660404   3.5281950  27.3033793   8.3569280
   2.7863686  27.4516428   8.9433911   3.2074694  27.5642058   7.4936030
  19.8105564  32.9315697  -3.9740206  20.3356888  33.2702970  -4.6990886
  19.7227916  31.9962713  -4.1577072  11.4725612  36.8449771   8.1549670
  11.7812739  36.5998918   9.0272370  12.2701094  37.0496409   7.6668541
   9.0144624  23.0207478  12.0509855   9.0632780  23.8969600  11.6687624
   9.5567138  22.4784871  11.4781498  19.4999470  33.5648601  11.3310992
  18.7095013  33.5472740  10.7915491  19.2632824  34.1036895  12.0860028
  19.6197345  30.4141067   8.6443720  19.6695350  30.2491075   9.5859243
  19.5111268  29.5468326   8.2541601  16.9101107  26.3971995   9.9603027
  17.8110970  26.2578460   9.6687025  16.9849082  26.5626450  10.9001204
  11.2443913  23.7738850   8.8056213  10.3747222  24.0672416   8.5338802
  11.4803393  24.3579295   9.5263477  21.1215542  32.8338009   8.8885742
  20.8300350  33.1967989   9.7249203  20.5087673  32.1205017   8.7099074
  22.3211224  30.3990889   1.4088312  23.1558115  30.8380693   1.5725872
  22.4570353  29.9229542   0.5896558  19.3702730  27.9570623   7.3565800
  19.8456851  28.1498270   6.5484651  18.4468295  28.0129809   7.1109183
  13.9482946  19.9918467   6.3221634  14.4664890  20.7279494   5.9968122
  13.5938079  20.2982460   7.1568393  18.0704399  24.8336384   5.5894105
  19.0221822  24.9334481   5.6106329  17.9007849  24.0414652   6.0992190
  16.0918778  21.9191967   5.7753506  15.4968710  22.1996979   5.0799995
  15.8068475  22.4085868   6.5470247  20.5492477  28.0542503   4.7036405
  20.5168797  27.1158504   4.8896089  21.1593100  28.1326540   3.9702230
  20.6986965  24.8453547   4.7494688  20.1826014  24.0612003   4.5624617
  21.5826914  24.5172263   4.9141208  26.3669027  29.1158510   3.8442442
  27.0972415  28.8543798   4.4050145  25.7575972  28.3787232   3.8844510
  24.4484324  27.2566373   4.4416893  23.7217487  27.1222338   3.8333385
  24.0331611  27.5643201   5.2473611  12.2714500  30.9756302  12.2064266
  13.1917510  31.1534901  12.4004313  12.2364083  30.0312348  12.0543965
   5.2676573  28.8857337   4.8487047   5.4862582  29.8174445   4.8675081
   5.6802346  28.5265311   5.6341851  10.1404438  24.4590543  14.2389796
  10.0401165  25.4084900  14.1701887   9.9225980  24.1308782  13.3665866
  10.0035708  27.8887682  13.0554858   9.5202790  28.6888042  13.2618747
  10.0896647  27.8995626  12.1022302   5.9309045  31.7792216   5.0923292
   6.8852299  31.7476159   5.0253223   5.7321569  31.3182840   5.9073518
   6.5208428  30.3493332   7.6594089   7.3401317  30.8437411   7.6828927
   6.7945235  29.4325300   7.6311657  22.0662119  23.4778225   1.7950325
  22.6606609  23.2373961   1.0843633  22.1388702  22.7585355   2.4223861
  24.3733191  26.7844426   0.5693746  23.8132749  26.8537615   1.3425308
  23.7676695  26.6085410  -0.1506758   1.7743342  24.6831466   8.3586286
   2.4202205  24.1730420   8.8473512   1.5660493  25.4200148   8.9329712
  14.2996734  31.7512314  13.8578427  15.1687894  31.9252966  13.4965062
  13.8203486  32.5706731  13.7354156   8.4682914  38.8709415   5.5367861
   9.3710161  38.9033025   5.8534356   8.2420284  37.9409866   5.5514196
   6.1140833  21.8299083  12.4561301   6.9772294  21.4735888  12.6664625
   5.5406243  21.4912978  13.1436705  25.9589210  43.4600940   3.2623702
  26.5967620  43.3407687   2.5587042  25.8410053  44.4081784   3.3211654
  22.7678916  43.4128368   3.1985226  22.4297428  43.2969432   2.3105761
  23.6368684  43.0119533   3.1786232  23.2498699  44.5663219   9.1571432
  23.2387340  44.1716018   8.2851935  23.4119339  43.8329292   9.7505203
  19.9705960  47.3500331   8.1050616  19.6795826  48.2545962   7.9897282
  20.6062945  47.3916859   8.8194685  20.8962167  44.7277180   4.6951975
  21.4925739  44.5033202   3.9808938  20.9537139  43.9861925   5.2977423
  28.4364326  34.8349201   5.7004497  28.1047651  35.7044612   5.4765712
  27.8409939  34.5185485   6.3798527  24.9295845  47.0361747   5.1000409
  24.6296568  47.9386786   4.9916217  24.5846905  46.7693930   5.9521562
  18.3808327  43.4875544   1.1337114  17.4558823  43.3551758   1.3414806
  18.6292740  44.2669763   1.6307056  28.3292989  39.5544287   2.7797847
  27.4209866  39.4859695   2.4856608  28.2780585  40.0316232   3.6079672
  22.4033855  40.9733933  10.7232744  21.6267189  41.5327853  10.7135609
  23.0424418  41.4590716  11.2447614  30.1954635  37.7560725   4.5575721
  29.5529016  38.0493259   3.9115515  29.6909564  37.6413646   5.3628917
  20.6580227  43.7819386  10.2850711  21.3994912  44.3204430  10.0085535
  19.9517213  44.4085675  10.4422263  26.1335567  45.9248526   8.8822873
  26.5418923  45.4830937   8.1377505  25.4112828  45.3501154   9.1357065
  22.4866637  40.8621133   6.2556430  23.3327832  41.2860547   6.3991079
  22.4265274  40.2054757   6.9494993  25.6366082  38.5225502   7.9137603
  25.3927014  39.2767562   7.3771879  25.9126013  38.9010849   8.7484850
  27.5904545  45.0664114   6.5914869  27.8021440  45.7095874   5.9149250
  27.5434293  44.2326430   6.1236799  25.1930774  37.6781935   3.4951441
  24.3315253  37.9763188   3.7868178  25.2193209  37.8952333   2.5632474
  18.9016424  45.7695607   2.8405010  19.4717781  46.1982875   2.2022494
  19.4924536  45.4878191   3.5389195  19.3941591  40.9359034  11.0866021
  18.7640251  41.6175315  11.3201418  19.2877679  40.8242116  10.1419159
  22.4706976  47.4920113   6.9197937  22.5351409  47.9540520   7.7556108
  21.7617900  46.8617478   7.0480246  12.9724266  40.8561321   4.4446936
  13.2232305  41.7408330   4.7104512  13.5083815  40.6765922   3.6722028
  18.6722334  35.2379800  13.4491272  18.2789279  34.6845998  14.1238916
  19.4888474  35.5490378  13.8397790  21.5890295  36.6537679  11.0411529
  22.3300008  37.2544832  10.9615991  21.8208217  35.9115317  10.4829571
  16.7331633  41.8394046   9.3189758  16.6185148  40.9379304   9.6196857
  15.8776150  42.0857743   8.9674575  23.8123470  49.7811787  10.9177259
  23.3687325  48.9948165  10.5998163  24.4740684  49.9690937  10.2521150
  25.9104708  50.0614587   8.9458660  25.8923184  50.8823468   8.4538929
  26.8324628  49.9368662   9.1708801  22.3677763  47.5758716   9.7882169
  22.9006099  46.8147004   9.5581477  21.8391844  47.2832368  10.5306323
  25.5347458  32.6818782   5.3175810  25.1911727  33.5720424   5.2414921
  25.9026420  32.4920440   4.4545395  23.0844851  37.5177094  -1.1166516
  22.2286448  37.1283944  -1.2960877  23.4971803  37.5969055  -1.9766731
  24.6143998  35.0523437   3.2825044  24.1108794  35.0153572   2.4692849
  24.9074605  35.9616180   3.3421700  20.8586884  35.1362167   2.2891225
  21.7239881  34.9404976   1.9297115  20.9264393  34.9072519   3.2160582
  18.4649203  37.3664375  -0.3392408  19.0392955  37.1439556  -1.0719215
  19.0520185  37.4353069   0.4136193  20.7671871  34.2405624  -1.6117338
  20.1136283  33.9254641  -2.2360724  20.7252345  33.6181364  -0.8857515
  24.0009611  40.7287557   2.7130309  23.0832172  40.9502504   2.5551997
  24.4169755  40.8033868   1.8542017  27.3335123  31.9412341   0.4193548
  27.6394000  31.0809705   0.1319463  28.0587728  32.5329961   0.2192542
  21.6056203  42.2366134   0.9269739  21.6604813  41.2839971   0.8512216
  20.7947405  42.3925573   1.4111038  19.5448563  40.8543194  -1.3139882
  18.7316428  41.1537365  -0.9074690  20.0407557  40.4598883  -0.5965400
  25.1422775  41.3185018   7.5175012  25.4972162  41.5456492   8.3769478
  25.7894906  41.6503395   6.8952267  19.0362638  38.4261549   4.3021353
  19.6762017  38.2850309   3.6044316  18.2040168  38.1396063   3.9259955
  17.5116179  39.8099632   6.2493164  18.1839233  39.6016994   5.6005813
  16.6845966  39.6121718   5.8098397  23.4141751  36.4361573   8.2658825
  22.7669666  37.1351522   8.1723302  24.1842767  36.8697716   8.6335073
  26.8220549  46.7010425  11.3409378  26.6706056  46.4720976  10.4239462
  26.8125229  47.6581026  11.3540723  23.5905886  44.2742337   6.3255645
  24.5197946  44.4253497   6.1524612  23.1696916  44.3626358   5.4704291
  22.3894218  48.2993002   4.0954182  22.2505303  47.9311786   4.9680121
  21.6008814  48.8140641   3.9238140  17.9143677  43.0842235   7.0095601
  17.7763475  42.3522473   7.6107140  18.8248600  42.9951135   6.7279789
  20.5425977  42.7962194   6.4979281  21.2525596  42.1555386   6.4565899
  20.4995285  43.0475089   7.4205462  28.5312756  49.7329547   9.4185860
  28.4725302  49.0488767   8.7516443  28.9332274  50.4748537   8.9666486
  19.2554911  39.7827412   8.3174921  18.7192268  39.3318150   8.9696517
  18.6671620  39.9173321   7.5745385  28.5330163  47.6969131   7.6499840
  27.6456942  47.3595053   7.7726239  29.1028714  46.9652162   7.8868605
  14.9894033  38.9183420   5.4027915  14.9052221  38.3109089   4.6678325
  14.1676739  39.4092438   5.4037411  25.1617746  37.4036983   0.7698110
  25.6586446  36.6506945   0.4499180  24.3904728  37.4401300   0.2041319
  21.7452715  39.5454366   0.4969795  21.3750503  38.9925406   1.1850700
  22.2411808  38.9412500  -0.0555205  19.5741914  50.0051861   7.5924813
  20.2751373  50.6388344   7.7454207  19.1037029  50.3466593   6.8320452
  27.6036741  34.3706577   2.9177469  26.6899821  34.6010803   3.0859676
  28.0329843  34.4545021   3.7691501  27.3743200  42.5596469   5.4177363
  26.7214650  42.8072376   4.7629816  27.7523580  41.7460607   5.0839840
  23.4230773  43.3016280  11.9043400  22.7471410  43.2010409  12.5745775
  24.2458407  43.1455493  12.3679397  17.1418049  36.9558357   6.7422901
  17.2059375  37.8173188   6.3300298  17.0785169  36.3432358   6.0095259
  16.6170321  39.0281489  10.3895935  17.2442360  38.6458567  11.0033459
  15.7598240  38.8095691  10.7551628  27.0164430  49.4344465  11.9949670
  27.5604334  50.0474423  11.5004625  26.4351275  49.9924043  12.5116684
  16.9230111  38.9113915   2.3041838  16.2016697  39.5249883   2.1649312
  17.7123367  39.4471680   2.2258484  19.7256425  36.2468342   8.5782490
  20.2490826  36.4930638   9.3408800  19.5068758  37.0788376   8.1585628
  20.9308970  37.1882037   6.2632161  20.5905790  36.3889850   6.6652841
  20.2247976  37.4883748   5.6908994  21.5825441  34.2731349   4.7159484
  22.4051511  33.7991827   4.5938374  21.8263505  35.0521833   5.2158170
  19.1064020  40.9650470   2.5251462  18.9608601  41.2790773   3.4175744
  18.6289224  41.5835370   1.9722361  20.9660403  37.9553018   2.5732352
  20.9521972  37.0594111   2.2364650  21.6832831  37.9623681   3.2070638
  22.8186534  38.3890358   4.6185479  22.5604312  39.3107429   4.6169810
  22.2871574  37.9920792   5.3085944  13.5809682  43.5055814   5.4639124
  13.0363150  44.2815622   5.5959398  14.4589032  43.8526619   5.3058245
  20.3697299  36.8367398  -2.1580078  20.4913210  35.9084044  -1.9589190
  20.0799341  36.8506084  -3.0701763  23.2388489  34.5222308   0.9786642
  23.2610186  34.5861642   0.0238621  23.6556548  33.6826817   1.1727148
  14.3675704  42.6325710   8.3569280  13.6257440  42.7808346   8.9433911
  14.0468449  42.8933976   7.4936030  22.3119367  52.1741689   8.1549670
  22.6206493  51.9290835   9.0272370  23.1094849  52.3788327   7.6668541
  19.8538379  38.3499395  12.0509855  19.9026534  39.2261518  11.6687624
  20.3960893  37.8076788  11.4781498  30.3393224  48.8940519  11.3310992
  29.5488768  48.8764657  10.7915491  30.1026579  49.4328812  12.0860028
  30.4591099  45.7432985   8.6443720  30.5089104  45.5782992   9.5859243
  30.3505023  44.8760244   8.2541601  27.7494862  41.7263913   9.9603027
  28.6504724  41.5870378   9.6687025  27.8242836  41.8918368  10.9001204
  22.0837667  39.1030768   8.8056213  21.2140976  39.3964334   8.5338802
  22.3197147  39.6871213   9.5263477  31.9609296  48.1629927   8.8885742
  31.6694104  48.5259907   9.7249203  31.3481427  47.4496935   8.7099074
  30.2096484  43.2862541   7.3565800  30.6850606  43.4790187   6.5484651
  29.2862050  43.3421727   7.1109183  24.7876701  35.3210385   6.3221634
  25.3058645  36.0571412   5.9968122  24.4331834  35.6274378   7.1568393
  25.0389295  31.7410667   1.8422530  25.3191049  31.0733856   2.4682957
  25.8239902  31.9339763   1.3297194  28.9098153  40.1628301   5.5894105
  29.8615576  40.2626399   5.6106329  28.7401604  39.3706570   6.0992190
  26.9312533  37.2483884   5.7753506  26.3362465  37.5288897   5.0799995
  26.6462230  37.7377785   6.5470247  31.5380720  40.1745464   4.7494688
  31.0219768  39.3903921   4.5624617  32.4220668  39.8464181   4.9141208
  29.1991447  33.9186480   0.7090501  29.0016268  33.6101568   1.5933833
  29.8091152  34.6448119   0.8388431  23.1108255  46.3048220  12.2064266
  24.0311264  46.4826819  12.4004313  23.0757838  45.3604265  12.0543965
  16.1070327  44.2149255   4.8487047  16.3256337  45.1466362   4.8675081
  16.5196101  43.8557229   5.6341851  23.0274545  34.7217340  -3.1637264
  22.2175273  34.3764425  -2.7882018  23.7158962  34.4124884  -2.5749653
  24.9565093  33.7995387  -1.5412968  25.5096132  34.2190840  -0.8822945
  25.1935180  32.8731135  -1.4990012  20.9798192  39.7882460  14.2389796
  20.8794919  40.7376817  14.1701887  20.7619734  39.4600699  13.3665866
  26.7847467  35.3100970   0.1687017  27.2847245  35.4217504  -0.6398664
  27.4283075  35.0062023   0.8087825  20.8429462  43.2179599  13.0554858
  20.3596544  44.0179959  13.2618747  20.9290402  43.2287544  12.1022302
  16.7702800  47.1084134   5.0923292  17.7246054  47.0768076   5.0253223
  16.5715324  46.6474758   5.9073518  17.3602182  45.6785250   7.6594089
  18.1795071  46.1729329   7.6828927  17.6338990  44.7617218   7.6311657
  12.6137096  40.0123384   8.3586286  13.2595960  39.5022338   8.8473512
  12.4054247  40.7492066   8.9329712  25.1390489  47.0804231  13.8578427
  26.0081648  47.2544884  13.4965062  24.6597240  47.8998648  13.7354156
  24.9492826  30.8706205  -1.6343881  24.1825222  30.3164692  -1.4887198
  25.3603531  30.9428074  -0.7729729  16.9534587  37.1591001  12.4561301
  17.8166049  36.8027806  12.6664625  16.3799998  36.8204896  13.1436705
  29.5116088  50.5671718  13.4491272  29.1183034  50.0137916  14.1238916
  30.3282228  50.8782296  13.8397790  32.4284049  51.9829597  11.0411529
  33.1693762  52.5836750  10.9615991  32.6601972  51.2407235  10.4829571
  27.4564076  54.3573407  10.3895935  28.0836115  53.9750484  11.0033459
  26.5991995  54.1387609  10.7551628  30.6932133  53.6791313  12.0509855
  30.7420289  54.5553436  11.6687624  31.2354647  53.1368706  11.4781498
  31.8191947  55.1174378  14.2389796  31.7188674  56.0668735  14.1701887
  31.6013489  54.7892617  13.3665866  27.7928342  52.4882919  12.4561301
  28.6559803  52.1319723  12.6664625  27.2193752  52.1496813  13.1436705
  27.0164431  26.4406587  -1.2805023  27.5604335  27.0536545  -1.7750068
  26.4351276  26.9986166  -0.7638010  30.3393226  25.9002641  -1.9443702
  29.5488769  25.8826780  -2.4839202  30.1026580  26.4390935  -1.1894665
  31.9609297  25.1692049  -4.3868952  31.6694106  25.5322030  -3.5505491
  31.3481429  24.4559057  -4.5655619  25.1390490  24.0866354   0.5823734
  26.0081649  24.2607006   0.2210368  24.6597241  24.9060771   0.4599463
  29.5116089  27.5733840   0.1736579  29.1183035  27.0200039   0.8484223
  30.3282230  27.8844419   0.5643096  32.4284050  28.9891719  -2.2343165
  33.1693764  29.5898872  -2.3138702  32.6601973  28.2469357  -2.7925122
  27.4564077  31.3635530  -2.8858758  28.0836116  30.9812607  -2.2721234
  26.5991996  31.1449732  -2.5203066  30.6932134  30.6853436  -1.2244839
  30.7420290  31.5615558  -1.6067069  31.2354649  30.1430829  -1.7973195
  31.8191948  32.1236501   0.9635103  31.7188675  33.0730858   0.8947194
  31.6013490  31.7954740   0.0911173  23.4530852  32.3477424  -4.9168407
  24.0989716  31.8376378  -4.4281182  23.2448003  33.0846106  -4.3424982
  27.7928343  29.4945041  -0.8193393  28.6559805  29.1381846  -0.6090068
  27.2193754  29.1558936  -0.1317989
  56.5154208  56.5154208  56.5154208 109.4712190 109.4712190 109.4712190
