default_name
   309
 106.6887808   8.9193246 129.6194463 106.8926587   7.8769120 129.8642110
 106.5914520   7.6790874 130.8929181 107.9588674   7.6790869 129.7539238
 106.1220000   6.9330000 128.9390000 105.3890000   7.3820000 128.0590000
 105.6970000   6.6660000 130.1700000 106.3172095   6.2255173 130.8343903
 104.3300000   6.9530000 130.5860000 103.8380000   7.5810000 129.8440000
 103.5250000   5.6570000 130.7090000 103.7799851   5.2083685 131.6691102
 102.4697914   5.9301643 130.7049847 103.7920000   4.6630000 129.6020000
 104.9320000   3.8690000 129.6140000 105.6290000   3.9730000 130.4330000
 105.1810000   2.9580000 128.6050000 106.0740000   2.3510000 128.6350000
 104.2860000   2.8320000 127.5650000 104.5310000   1.9270000 126.5580000
 103.8110000   1.9860000 125.9100000 103.1440000   3.6100000 127.5280000
 102.4420000   3.5130000 126.7140000 102.9050000   4.5170000 128.5430000
 102.0150000   5.1290000 128.5210000 104.3220000   7.7020000 131.9150000
 105.3440000   8.2490000 132.3290000 103.1670000   7.7200000 132.5710000
 102.3423523   7.3150270 132.1514141 103.0370000   8.3560000 133.8770000
 104.0010000   8.7570000 134.1930000 102.0470000   9.5210000 133.8100000
 101.0378722   9.1294723 133.9383216 102.2716263  10.2170009 134.6182239
 102.1370000  10.1960000 132.5670000 101.5075592  10.9206503 132.5500862
 102.5850000   7.3430000 134.9220000 102.2210000   6.2160000 134.5840000
 102.6110000   7.7520000 136.1860000 103.3950000   8.7970000 136.7860000
 102.9713243   9.7583443 136.4954550 104.4160748   8.7225619 136.4118822
 103.3090000   8.5550000 138.2450000 103.4248093   9.5007749 138.7743364
 104.1040159   7.8720047 138.5442800 101.9670000   7.9520000 138.4940000
 101.2378205   8.7582410 138.5738231 101.8683244   7.2872775 139.3521997
 101.7380000   7.1700000 137.1990000 101.9130000   6.0970000 137.2690000
 100.2740000   7.3830000 136.8280000  99.8690000   8.4960000 136.4930000
  99.4910000   6.3110000 136.8900000  99.8648655   5.4315482 137.2169379
  98.0970000   6.3540000 136.4640000  97.7880000   7.3870000 136.3060000
  97.8860000   5.5940000 135.1420000  98.1020000   4.5350000 135.2930000
  96.4460000   5.7300000 134.6730000  96.3160000   5.1860000 133.7360000
  96.2130000   6.7840000 134.5160000  95.7770000   5.3180000 135.4290000
  98.7630000   6.1220000 134.1390000  99.3450000   5.4260000 133.8910000
  97.1930000   5.7530000 137.5350000  96.7200000   6.4610000 138.4240000
  96.9610000   4.4470000 137.4420000  97.3926612   3.8272063 136.7899085
  96.0520000   3.7640000 138.3540000  95.7980000   4.4180000 139.1880000
  94.7510000   3.3950000 137.6370000  95.0000299   2.9059561 136.7026611
  94.2387666   2.6814049 138.2697874  93.9460000   4.5630000 137.3910000
  92.8150000   4.9830000 138.4270000  93.3420000   4.6460000 139.7740000
  92.5150000   6.4120000 138.1560000  91.6731615   4.0603877 138.0733216
  96.7090000   2.5110000 138.9240000  97.6790000   2.0040000 138.3610000
  96.1740000   2.0240000 140.0380000  95.1450000   2.6790000 140.7960000
  94.2613828   2.7752344 140.1650801  95.5013889   3.6706068 141.0749300
  94.9110000   1.8090000 141.9760000  93.8844227   1.4471350 141.9186259
  95.0292661   2.4250198 142.8674225  95.8870000   0.6810000 141.9750000
  95.3022438  -0.2129215 141.7580586  96.4591555   0.5270916 142.8899043
  96.8340000   0.9780000 140.8110000  97.8570000   1.2760000 141.0440000
  96.8950000  -0.3190000 140.0120000  95.9230000  -0.6960000 139.3570000
  98.0390000  -0.9920000 140.0720000  98.8259057  -0.6053690 140.5733933
  98.2140000  -2.2690000 139.3890000  97.4340000  -2.4000000 138.6390000
  99.5640000  -2.3110000 138.6700000  99.6519543  -1.4253476 138.0407281
 100.3576366  -2.3054904 139.4171349  99.6790000  -3.4730000 137.8680000
  99.8060000  -4.1980000 138.4520000  98.1110000  -3.4230000 140.3800000
  97.1120000  -4.1430000 140.3990000  99.1470000  -3.5900000 141.1960000
  99.9213467  -2.9421261 141.1686890  99.2240000  -4.7210000 142.1130000
  98.2850000  -5.2730000 142.1050000 100.3350000  -5.6820000 141.6870000
 101.2777520  -5.2602831 142.0355294 100.1534944  -6.6309894 142.1915542
 100.4070000  -5.9110000 140.1940000  99.3060000  -6.3810000 139.4890000
  98.3910000  -6.5810000 140.0270000  99.3660000  -6.5920000 138.1250000
  98.4980000  -6.9580000 137.5970000 100.5380000  -6.3340000 137.4470000
 100.6020000  -6.5430000 136.0890000  99.9320000  -7.2010000 135.8470000
 101.6480000  -5.8660000 138.1240000 102.5670000  -5.6630000 137.5940000
 101.5770000  -5.6580000 139.4880000 102.4400000  -5.2930000 140.0250000
  99.4690000  -4.2360000 143.5380000  98.7130000  -4.5700000 144.4510000
 100.5260000  -3.4500000 143.7170000 101.2173819  -3.3600323 142.9862496
 100.7470000  -2.7370000 144.9690000 100.6280000  -3.4170000 145.8130000
 102.1690000  -2.1740000 145.0220000 102.3636782  -1.6292353 144.0981867
 102.2430271  -1.4911402 145.8683584 103.1230000  -3.2120000 145.1680000
 103.8880000  -2.9490000 144.6880000  99.7320000  -1.6100000 145.1280000
  99.1940000  -1.1100000 144.1400000  99.4790000  -1.2190000 146.3730000
  99.8090000  -2.0210000 147.5190000 100.7385180  -1.6468083 147.9480421
  99.9490898  -3.0514644 147.1924775  98.6530000  -1.8710000 148.4420000
  98.9736326  -2.0152610 149.4737376  97.8791754  -2.5986564 148.1974331
  98.1670000  -0.4790000 148.2120000  98.8476108   0.2162922 148.7033622
  97.1407826  -0.2410649 148.4919362  98.3300000  -0.3810000 146.6940000
  97.4650000  -0.6940000 146.1090000  98.6210000   1.0770000 146.3560000
  97.8550000   1.7170000 145.6360000  99.7300000   1.5900000 146.8790000
 100.2517979   1.0674962 147.5680690 100.2090000   2.9170000 146.5090000
  99.3650000   3.5660000 146.2730000 100.9990000   3.5730000 147.6570000
 101.6700000   4.3310000 147.2500000 100.0510000   4.2440000 148.6390000
  99.3724363   3.4998269 149.0559621 100.6255138   4.7025218 149.4438545
  99.4746873   5.0112139 148.1219438 101.7650000   2.5750000 148.3440000
 102.5700000   2.9830000 148.6060000 101.0990000   2.8380000 145.2730000
 102.1970000   3.3930000 145.2570000 100.6160000   2.1470000 144.2450000
  99.7008115   1.7530141 144.1911100 101.3950000   1.9340000 143.0320000
 102.2780000   2.5720000 143.0390000 101.8690000   0.4820000 142.9480000
 102.5556469   0.2968469 143.7655594 100.9938339  -0.1392442 143.0899894
 102.5110000   0.2180000 141.6860000 103.1630000  -1.2050000 141.4080000
 103.9310000  -1.5540000 142.6300000 102.0460000  -2.1070000 141.0300000
 104.1105947  -0.9253547 140.2660894 100.5700000   2.2880000 141.7990000
 100.2600000   1.4190000 140.9830000 100.2220000   3.5640000 141.6730000
 100.6730000   4.6620000 142.4830000 101.6887935   4.4470500 142.8147535
 100.0168580   4.7391375 143.3499639 100.6000000   5.8610000 141.6090000
 101.5478271   5.9975402 141.0883469 100.3858094   6.7445223 142.2103419
  99.4880000   5.5850000 140.6530000  99.6923496   6.0979291 139.7131894
  98.4855395   5.8413377 140.9957295  99.6010000   4.0720000 140.4550000
  98.6370000   3.5880000 140.2980000 100.4780000   3.7740000 139.2440000
 101.2550000   4.6240000 138.8100000 100.3460000   2.5650000 138.7070000
  99.7086420   1.8977647 139.1176959 101.1350000   2.1480000 137.5550000
 102.1830000   2.4070000 137.7070000 101.0520000   0.6320000 137.3680000
 101.0393688   0.1588367 138.3498636 100.1292110   0.3942849 136.8388006
 102.2200000   0.0770000 136.5780000 102.3170000   0.2790000 135.3670000
 103.1150000  -0.6280000 137.2610000 102.9940000  -0.7700000 138.2640000
 103.9230000  -1.0260000 136.7840000 100.6550000   2.8580000 136.2930000
  99.6380000   3.5510000 136.3150000 101.3930000   2.6790000 135.2020000
 102.1925938   2.0625200 135.2284860 101.1080000   3.3880000 133.9610000
 100.6930000   4.3720000 134.1790000 102.3920000   3.5910000 133.1530000
 102.1452524   4.2393612 132.3122607 103.1063329   4.0960359 133.8032056
 103.0010000   2.3070000 132.6370000 102.8050000   1.9010000 131.3230000
 102.2070000   2.5210000 130.6710000 103.3590000   0.7290000 130.8460000
 103.1940000   0.4320000 129.8210000 104.1200000  -0.0550000 131.6850000
 104.6740000  -1.2230000 131.2140000 105.5780000  -1.2960000 131.5570000
 104.3310000   0.3250000 132.9970000 104.9280000  -0.2880000 133.6560000
 103.7720000   1.5000000 133.4630000 103.9320000   1.8050000 134.4870000
 100.0830000   2.6210000 133.1310000  99.3550000   3.2140000 132.3350000
 100.0360000   1.3070000 133.3250000 100.5273401   0.8940652 134.1048520
  99.3250000   0.4230000 132.4100000  98.3780000   0.8750000 132.1140000
 100.1480000   0.1910000 131.1410000 101.1595519   0.5608127 131.3086322
 100.1820166  -0.8793814 130.9379567  99.5770000   0.8640000 130.0320000
  98.6440000   0.8280000 130.1420000  99.0170000  -0.9090000 133.0850000
  99.4580000  -1.9610000 132.6220000  98.2620000  -0.8530000 134.1770000
  97.9300000   0.3380000 134.9110000  97.0933425   0.8551750 134.4412825
  98.7886817   1.0075520 134.9606472  97.5780000  -0.2290000 136.2350000
  96.9426234   0.4693085 136.7797577  98.4847650  -0.4184175 136.8094560
  96.8590000  -1.5030000 135.9390000  95.8540911  -1.2455604 135.6043630
  96.7976795  -2.2508673 136.7295908  97.6740000  -2.0500000 134.7650000
  98.4570000  -2.7700000 135.0060000  96.7150000  -2.7130000 133.7820000
  95.8250000  -2.0580000 133.2400000  96.9060000  -4.0090000 133.5590000
  97.6947852  -4.4821645 133.9761722  96.0190000  -4.7760000 132.6930000
  95.0160000  -4.3490000 132.7130000  96.5050000  -4.7610000 131.2320000
  95.7980000  -5.3080000 130.6070000  96.5980000  -3.3320000 130.7160000
  96.9430000  -3.3410000 129.6820000  97.3020000  -2.7690000 131.3300000
  95.6140000  -2.8630000 130.7680000  97.7950000  -5.3790000 131.1480000
  98.4310000  -4.7110000 131.3310000  95.9230000  -6.2210000 133.1710000
  96.9360000  -6.8370000 133.5040000  94.7040000  -6.7500000 133.2010000
  93.8544146  -6.2558323 133.0286576  94.4910000  -8.1700000 133.4500000
  94.7170000  -8.4050000 134.4900000  93.0300000  -8.5460000 133.1940000
  92.4343121  -7.6409739 133.2098960  92.9871266  -8.9653340 132.1968331
  92.5530000  -9.4760000 134.1840000  91.0700000 -10.0440000 134.0920000
  90.3670000  -9.5660000 135.3090000  90.5360000  -9.5960000 132.7810000
  91.2748739 -11.5380372 134.1693070  95.4110000  -9.0110000 132.5700000
  95.9020000 -10.0550000 132.9980000  95.6360000  -8.5470000 131.3450000
  94.6540000  -7.8460000 130.5640000  94.3378459  -6.9846954 131.1524737
  93.8111430  -8.5244638 130.4321744  95.2740000  -7.4580000 129.2750000
  95.3907973  -6.3764951 129.2056850  94.6811002  -7.8136436 128.4323323
  96.5970000  -8.1470000 129.3240000  97.3099044  -7.3559684 129.5566701
  96.8740711  -8.6194553 128.3816003  96.5890000  -9.1870000 130.4470000
  96.2160000 -10.1650000 130.1430000  97.9280000  -9.3930000 131.1470000
  98.4570000 -10.5040000 131.1690000  98.4650000  -8.3180000 131.7140000
  98.0009895  -7.4238777 131.6409320  99.7440000  -8.3780000 132.4110000
 100.4580000  -8.9630000 131.8310000 100.3250000  -6.9730000 132.5870000
 100.5543546  -6.5643919 131.6028582  99.5793905  -6.3456977 133.0755267
 101.5040000  -7.0030000 133.3720000 101.4890000  -6.2370000 133.9170000
  99.5810000  -9.0510000 133.7700000 100.5020000  -9.7070000 134.2570000
  98.4080000  -8.8820000 134.3710000  97.6867466  -8.3330077 133.9254631
  98.2376673  -9.3025375 135.2733496
