default_name
   306
 203.6953518  52.5599344   7.3127672 203.7387305  52.9433991   8.3321656
 202.8565092  53.5523007   8.5297076 204.6345442  53.5523011   8.4540470
 203.7820000  51.8010000   9.3490000 203.7660000  50.6290000   8.9730000
 204.4900000  52.2170000  10.3940000 204.4424239  53.1835036  10.6833209
 205.3810000  51.3210000  11.1210000 206.0520000  50.8170000  10.4260000
 206.2400000  52.1090000  12.1120000 207.2015388  52.2913980  11.6321320
 205.7376469  53.0596562  12.2908690 206.4610000  51.4000000  13.4300000
 207.3010000  50.2970000  13.5160000 207.7970000  49.9500000  12.6220000
 207.5060000  49.6460000  14.7170000 208.1630000  48.7900000  14.7620000
 206.8680000  50.0950000  15.8530000 207.0690000  49.4500000  17.0510000
 206.6730000  49.9830000  17.7580000 206.0270000  51.1900000  15.7950000
 205.5260000  51.5440000  16.6840000 205.8290000  51.8340000  14.5880000
 205.1740000  52.6900000  14.5340000 204.5790000  50.2520000  11.8570000
 203.5150000  50.5370000  12.4060000 205.0980000  49.0290000  11.8610000
 206.0288886  48.8745813  11.5008603 204.3400000  47.8770000  12.3340000
 203.2730000  48.0990000  12.3140000 204.5820000  46.6680000  11.4280000
 205.6207076  46.6815032  11.0978434 204.3951126  45.7596001  12.0006979
 203.7270000  46.6980000  10.2980000 203.8980678  45.9308159   9.7468519
 204.7220000  47.5390000  13.7710000 205.8620000  47.1620000  14.0420000
 203.7640000  47.6790000  14.6810000 202.3950000  47.9830000  14.3670000
 202.0424857  47.2367215  13.6550293 202.3702412  48.9684303  13.9017977
 201.6510000  47.9440000  15.6470000 200.9404601  47.1179043  15.6187504
 201.1112506  48.8826956  15.7719902 202.6570000  47.7600000  16.7320000
 202.3393850  46.8440637  17.2302774 202.6898957  48.5741945  17.4559508
 204.0400000  47.5600000  16.1080000 204.8270000  48.2570000  16.3950000
 204.5150000  46.1510000  16.4450000 205.0960000  45.9240000  17.5060000
 204.2650000  45.2140000  15.5350000 203.6312172  45.4068261  14.7726111
 204.8600000  43.8860000  15.6200000 205.4670000  43.8060000  16.5220000
 203.7820000  42.7870000  15.6810000 203.1660000  42.8320000  14.7820000
 204.4270000  41.4120000  15.7560000 203.6490000  40.6480000  15.7980000
 205.0470000  41.3490000  16.6510000 205.0460000  41.2520000  14.8720000
 202.9570000  42.9870000  16.8360000 202.2550000  43.5550000  16.5750000
 205.7660000  43.6290000  14.4210000 205.3840000  43.8930000  13.2810000
 206.9620000  43.1160000  14.6880000 207.3398403  42.9749102  15.6007044
 207.8500000  42.6480000  13.6300000 207.7490000  43.2840000  12.7510000
 209.3080000  42.7100000  14.0880000 209.4026046  43.4938331  14.8301756
 209.5255906  41.7619403  14.5632454 210.1890000  42.9640000  12.9770000
 211.7590000  42.7820000  13.1500000 212.3700000  43.2180000  11.8690000
 212.1320000  43.5420000  14.3700000 211.9102192  41.2884445  13.3128552
 207.4890000  41.2230000  13.2220000 207.3100000  40.9390000  12.0380000
 207.3850000  40.3390000  14.2090000 207.6610000  40.4920000  15.6110000
 207.0522034  41.3192677  15.9758220 208.7161738  40.7463800  15.7109905
 207.3250000  39.2050000  16.2670000 206.3753606  39.3323324  16.7866831
 208.1084526  38.9838463  16.9918410 207.2400000  38.1340000  15.2310000
 206.3636845  37.5191947  15.4363889 208.1132752  37.4926909  15.1117833
 207.0150000  38.9510000  13.9580000 207.5500000  38.5740000  13.0860000
 205.5200000  38.8410000  13.6740000 204.8470000  39.8500000  13.4680000
 205.0140000  37.6120000  13.6650000 205.6210618  36.8153700  13.7952150
 203.5970000  37.3690000  13.4240000 203.2010000  38.1200000  12.7400000
 203.3910000  35.9960000  12.7790000 204.2163838  35.8049690  12.0931808
 203.3880527  35.2387588  13.5630135 202.1660000  35.9450000  12.0690000
 202.0605534  35.0760284  11.6748311 202.8100000  37.4600000  14.7270000
 201.6480000  37.8670000  14.7280000 203.4510000  37.0790000  15.8270000
 204.4013940  36.7426375  15.7660834 202.8030000  37.0870000  17.1330000
 201.7510000  37.3510000  17.0250000 202.8720000  35.6990000  17.7740000
 202.5916873  35.8126632  18.8211890 202.1380544  35.0718223  17.2679643
 204.2350000  35.0510000  17.6850000 204.7870000  34.7140000  16.4560000
 204.2250000  34.9240000  15.5580000 206.0330000  34.1210000  16.3690000
 206.4440000  33.8680000  15.4030000 206.7430000  33.8580000  17.5200000
 207.9840000  33.2680000  17.4380000 208.1240000  32.9730000  16.5240000
 206.2170000  34.1830000  18.7550000 206.7730000  33.9770000  19.6590000
 204.9710000  34.7750000  18.8310000 204.5520000  35.0320000  19.7920000
 203.4540000  38.1190000  18.0460000 204.6740000  38.2880000  18.0290000
 202.6340000  38.8030000  18.8380000 201.6524891  38.5673089  18.8724298
 203.1030000  39.9290000  19.6370000 203.9030000  40.4510000  19.1120000
 201.9690000  40.9290000  19.8700000 202.3023295  41.6726845  20.5938260
 201.7372510  41.4206761  18.9252000 200.8090000  40.2790000  20.3610000
 200.8620000  40.2980000  21.2990000 203.6560000  39.4430000  20.9720000
 203.1030000  38.5280000  21.5810000 204.7460000  40.0620000  21.4160000
 205.3310000  41.2610000  20.8830000 204.5081217  41.8660347  20.5023366
 205.9693969  40.9543320  20.0544451 206.0900000  41.9440000  21.9590000
 205.4760843  42.6032677  22.5726551 206.9591437  42.4920699  21.5952556
 206.5060000  40.7270000  22.7150000 206.7261309  41.0812733  23.7220411
 207.3704264  40.1922039  22.3214778 205.2880000  39.8010000  22.7440000
 205.4780000  38.7350000  22.8660000 204.2940000  40.2260000  23.8190000
 204.2700000  39.6540000  24.9090000 203.4790000  41.2270000  23.5030000
 203.3292432  41.4693463  22.5340106 202.8080000  42.0210000  24.5260000
 202.8720000  41.5170000  25.4900000 203.4570000  43.4090000  24.6790000
 202.7320000  44.1050000  25.1040000 204.6580000  43.3360000  25.6090000
 205.3941667  42.6445770  25.1990092 205.1041749  44.3258081  25.7054727
 204.3377108  42.9852147  26.5900531 203.8810000  43.8860000  23.3950000
 203.3700000  44.6510000  23.2060000 201.3330000  42.1950000  24.1840000
 200.8810000  41.7580000  23.1250000 200.5930000  42.8340000  25.0840000
 200.9336967  43.2410597  25.9289421 199.1650000  43.0510000  24.8880000
 198.8240000  42.5110000  24.0040000 198.3730000  42.5290000  26.0880000
 199.0743746  42.2016233  26.8463318 197.8137705  43.3689380  26.4801575
 197.5070000  41.4440000  25.7060000 196.3310000  40.9860000  26.6730000
 196.2260000  39.5110000  26.5290000 196.6740000  41.5110000  28.0190000
 195.1178288  41.6516071  26.0686161 198.8740000  44.5330000  24.6730000
 199.7330000  45.3800000  24.9210000 197.6650000  44.8330000  24.2120000
 197.2960000  46.1760000  23.8580000 198.1586547  46.6529084  23.3927200
 197.0366240  46.7085975  24.7729661 196.1430000  46.0510000  22.9290000
 196.4825442  46.3222201  21.9293759 195.3703950  46.7489541  23.2515567
 195.6430000  44.6460000  22.9720000 195.3738979  44.3347302  21.9626467
 194.8078535  44.4540860  23.6456460 196.8790000  43.8770000  23.4410000
 196.6370000  43.0110000  24.0570000 197.6710000  43.3860000  22.2330000
 198.8070000  43.8070000  22.0190000 197.0620000  42.4990000  21.4540000
 196.1303438  42.1825896  21.6820363 197.7210000  41.9240000  20.2880000
 198.6980000  41.5300000  20.5680000 196.8960000  40.7660000  19.7220000
 196.7779872  39.9963932  20.4848090 195.9143933  41.1317504  19.4207113
 197.5671679  40.2127167  18.5869615 197.0496355  39.4862916  18.2319028
 197.9350000  42.9870000  19.2160000 198.9450000  42.9710000  18.5130000
 196.9800000  43.9040000  19.1010000 196.2393219  43.9498732  19.7861211
 196.9400000  44.8320000  17.9760000 197.4350000  44.3900000  17.1110000
 195.4930000  45.1340000  17.5820000 195.5252026  45.8037013  16.7226035
 195.0346023  44.1894888  17.2889638 194.6770000  45.7690000  18.6850000
 193.7540000  45.0260000  19.4090000 193.6260000  43.9810000  19.1710000
 193.0060000  45.6020000  20.4180000 192.2930000  45.0060000  20.9690000
 193.1760000  46.9370000  20.7150000 192.4330000  47.5140000  21.7190000
 192.7970000  48.3940000  21.9050000 194.0870000  47.6990000  20.0100000
 194.2220000  48.7460000  20.2410000 194.8300000  47.1130000  19.0030000
 195.5450000  47.7010000  18.4470000 197.6690000  46.1250000  18.3240000
 197.9770000  46.9260000  17.4420000 197.9400000  46.3180000  19.6110000
 197.6418534  45.6386659  20.2963562 198.6230000  47.5180000  20.0790000
 199.1560000  47.9890000  19.2530000 197.6150000  48.5320000  20.6230000
 196.8620828  47.9988104  21.2034514 198.1408900  49.2347098  21.2693271
 196.9850000  49.2400000  19.5700000 197.2640000  48.8400000  18.7660000
 199.6450000  47.1650000  21.1550000 199.5660000  47.6630000  22.2780000
 200.5960000  46.3070000  20.8030000 200.7360000  45.6720000  19.5210000
 200.6835354  46.4452536  18.7545624 199.9037237  44.9794653  19.3952588
 202.0480000  44.9810000  19.5440000 202.8226140  45.6333483  19.1408698
 202.0003271  44.0662648  18.9531631 202.2900000  44.6730000  20.9840000
 203.3512860  44.8096720  21.1915855 201.9962272  43.6574541  21.2494500
 201.4680000  45.6820000  21.7900000 200.8710000  45.1600000  22.5370000
 202.3030000  46.7360000  22.5090000 203.2440000  47.2850000  21.9370000
 201.9500000  47.0110000  23.7610000 201.1969640  46.4982220  24.1969987
 202.6020000  48.0660000  24.5270000 202.6800000  48.9700000  23.9240000
 201.8040000  48.4160000  25.7970000 201.3700000  47.5070000  26.2160000
 202.7150000  49.0420000  26.8420000 203.1578395  49.9531491  26.4397561
 202.1349946  49.2831284  27.7328142 203.5058962  48.3389363  27.1033143
 200.7570000  49.3380000  25.4680000 201.1700000  50.1040000  25.1130000
 204.0120000  47.6430000  24.9240000 204.2070000  46.5650000  25.4850000
 204.9860000  48.4980000  24.6290000 204.8705107  49.3612990  24.1420954
 206.3620000  48.2670000  25.0510000 207.0310000  48.9560000  24.5340000
 206.5110000  48.5120000  26.5540000 205.5228800  48.5334336  26.9982166
 207.0473965  47.6617288  26.9556699 207.2020000  49.7480000  26.8120000
 206.8070000  50.6320000  28.0730000 207.0040000  49.7660000  29.2640000
 207.6290000  51.8650000  27.9900000 205.3341248  50.8869056  27.8590870
 206.7950000  46.8460000  24.7060000 207.1140000  46.0570000  25.5950000
 206.8030000  46.5320000  23.4150000 206.6680000  47.4620000  22.3270000
 207.2469690  48.3530658  22.5696868 205.6145787  47.7271526  22.2370187
 207.1790000  46.7610000  21.1250000 208.1869053  47.1136719  20.9062569
 206.5268913  46.9786780  20.2791443 207.1690000  45.3030000  21.4440000
 208.1508465  44.9448640  21.1344600 206.3958110  44.7238448  20.9391657
 207.0190000  45.1640000  22.9600000 206.2220000  44.5180000  23.3280000
 208.3420000  44.6260000  23.4950000 209.3850000  45.2590000  23.3330000
 208.2880000  43.4600000  24.1300000 207.3930031  43.0510516  24.3576866
 209.4950000  42.7630000  24.5570000 210.1440000  43.4450000  25.1080000
 209.1420000  41.6020000  25.4880000 209.1413374  40.6784083  24.9091414
 209.8986637  41.5394746  26.2700810 207.8680000  41.7900000  26.0780000
 207.9270000  42.5580000  26.6170000 210.2720000  42.2500000  23.3500000
 209.7100000  41.5750000  22.4870000 211.5590000  42.5750000  23.2980000
 211.9692244  43.1323765  24.0336286 212.1272865  42.2647217  22.5228370
