default_name
 12267
  35.8522819  37.6229936  34.0451508  36.0832474  36.5586107  34.0880935
  35.1813342  36.0004261  34.3392523  36.8432040  36.3816154  34.8491702
  36.6113868  36.0549102  32.7433799  36.7273518  36.8241254  31.7904109
  35.5033063  35.3610119  32.9840828  35.4836645  34.6840067  33.7333341
  34.3101740  35.5161810  32.1616037  34.4096048  36.3918188  31.5209915
  34.1207724  34.2952900  31.2580981  33.6660702  33.5120964  31.8646892
  33.4326748  34.5844982  30.4637554  35.4043810  33.7791994  30.6491864
  36.2850537  33.0014826  31.3906391  36.0360120  32.7688170  32.4159347
  37.4597344  32.5262648  30.8390085  38.1296064  31.9232222  31.4343313
  37.7684771  32.8276578  29.5304440  38.9375898  32.3573843  28.9780699
  38.9962327  32.6779383  28.0639631  36.9102799  33.5999587  28.7702690
  37.1506004  33.8374063  27.7452453  35.7379828  34.0688982  29.3322389
  35.0623236  34.6734855  28.7447979  33.0781241  35.7136994  33.0392969
  33.1992909  36.0324551  34.2220067  31.9024275  35.5228579  32.4510775
  31.8593801  35.3313764  31.4603298  30.6494691  35.6282311  33.1900116
  30.8535017  35.8502070  34.2383677  29.7913765  36.7654784  32.6312991
  29.2199022  36.3876068  31.7835200  29.1063900  37.1010049  33.4099617
  30.5970078  37.8529871  32.2105176  30.0364710  38.5515617  31.8649863
  29.8814301  34.3133216  33.1297861  30.2508717  33.4070348  32.3821057
  28.8161860  34.2188970  33.9184509  28.5145641  34.9374678  35.1264912
  28.2140911  35.9510198  34.8609189  29.4139185  34.9749711  35.7411896
  27.4224718  34.1703928  35.7695862  26.8151139  34.8452764  36.3727011
  27.8520855  33.3994216  36.4092244  26.6264141  33.5622748  34.6636664
  25.9108479  34.3035621  34.3079176  26.1059656  32.6284697  34.8763659
  27.7043943  33.3292081  33.6031814  28.0605133  32.3027716  33.5227996
  27.0757554  33.7132558  32.2676566  26.7764899  34.8833863  32.0304777
  26.8813430  32.7220756  31.4040116  27.1016696  31.7724480  31.6681386
  26.3840279  32.9668317  30.0551851  26.0286112  33.9934838  29.9703413
  27.4867205  32.7636639  29.0003880  27.8009212  31.7185729  28.9995856
  26.9687725  33.1122037  27.6139152  27.7632165  32.9626225  26.8809151
  26.6507050  34.1554601  27.5965054  26.1224818  32.4695139  27.3698192
  28.6087079  33.5994313  29.3111276  29.3353062  33.0280268  29.4848971
  25.2154955  32.0388575  29.7407743  24.0603929  32.3781206  29.9975863
  25.5262859  30.8707259  29.1867104  26.4515828  30.5259806  29.0429211
  24.4995121  29.9263688  28.7642898  23.5289839  30.2289837  29.1570840
  24.3961049  29.8950284  27.2374710  25.3928698  29.7829907  26.8274999
  23.8212474  29.0137444  26.9827194  23.7809622  31.0959406  26.7353015
  22.2143651  31.1348186  26.4648961  21.5908439  30.3015199  27.5243968
  21.8366623  32.5704741  26.4234748  22.0854028  30.4492808  25.1256786
  24.8062443  28.5303556  29.2968503  25.9439359  28.2392306  29.6653907
  23.7865364  27.6798948  29.3329377  22.4235580  28.0372080  29.0553641
  22.3634888  28.3912389  28.0262120  22.1335419  28.8403402  29.7328361
  21.6382413  26.7972279  29.2784848  21.1896007  26.5168605  28.3254818
  20.8510463  27.0309896  29.9952699  22.5293965  25.7201611  29.7988025
  22.6115414  24.9918609  28.9920001  22.2087757  25.2166678  30.7108313
  23.8809661  26.3997357  30.0254121  24.2120460  26.5553510  31.0529295
  24.8972117  25.4943661  29.3384757  24.9399235  25.4216640  28.1101320
  25.7089248  24.8107208  30.1378604  25.6729892  24.9558448  31.1367333
  26.6972586  23.8767820  29.6098476  26.8532761  24.0613349  28.5469931
  28.0410808  24.0625582  30.3175582  28.3175084  25.1158820  30.2706961
  27.9311660  23.7623168  31.3596109  29.0522426  23.2816720  29.7056420
  28.8890489  22.3871504  29.9423040  26.2134857  22.4399598  29.7708191
  25.8254145  21.7981846  28.7939428  26.2413417  21.9461438  31.0046792
  26.5259736  22.5315239  31.7769578  25.9118807  20.5524235  31.2785004
  25.5310280  20.0744969  30.3768206  27.1573221  19.7846549  31.7242865
  27.3182887  20.0143637  32.7775779  26.9397557  18.7223234  31.6137569
  28.4023084  20.1283443  30.9378003  28.4348796  19.9923599  29.5555653
  27.5509993  19.6357344  29.0473894  29.5694516  20.3048868  28.8319008
  29.5726456  20.1914873  27.7579854  30.6926029  20.7592163  29.4891282
  31.8243528  21.0712224  28.7723748  31.8084043  20.5737506  27.9400915
  30.6871645  20.9035229  30.8633913  31.5664121  21.2598067  31.3797783
  29.5470651  20.5885753  31.5773818  29.5343975  20.6978459  32.6517478
  24.8293519  20.4610724  32.3488562  23.7905467  19.8348155  32.1359076
  25.0813203  21.0880830  33.4936075  26.0137566  21.4221154  33.6913052
  24.0512496  21.2735367  34.5081395  23.5341993  20.3315460  34.6930980
  24.6751549  21.7290315  35.8291726  25.3357577  22.5730463  35.6308240
  23.8774271  22.0430442  36.5023193  25.4157193  20.6811333  36.4311274
  26.1502280  21.0793699  36.8632138  23.0173566  22.2918692  34.0394186
  23.3142155  23.1423621  33.2002973  21.8097283  22.1969924  34.5867277
  21.3583393  21.0143043  35.2671076  21.4639140  21.1702888  36.3407105
  21.9840825  20.1767121  34.9589132  19.9407733  20.8459997  34.8512405
  19.3823056  20.3159871  35.6227970  19.8864696  20.2883214  33.9162820
  19.4344324  22.2381136  34.6712466  19.2558619  22.6765558  35.6530714
  18.5569420  22.3875384  34.0421342  20.6575023  22.8912627  34.0247225
  20.6906607  22.8482042  32.9359317  20.6657370  24.3595191  34.4356290
  20.5858439  25.2470157  33.5866749  20.7641369  24.6031553  35.7385249
  20.6920727  23.8441177  36.4009206  20.9435101  25.9558076  36.2537209
  20.4469910  26.6732086  35.5994749  20.3394619  26.1087067  37.6622973
  20.8217594  26.9415229  38.1763597  18.8482727  26.3944367  37.5729546
  18.3500261  25.5709584  37.0613556  18.4371714  26.4996645  38.5769576
  18.6874239  27.3177498  37.0164287  20.5471999  24.9017293  38.4071326
  20.6980295  25.1555875  39.2992870  22.4247000  26.3156662  36.3048619
  22.9153131  26.8001468  37.3239116  23.1256482  26.0754107  35.2010038
  22.7482549  25.7603247  34.3326755  24.5632959  26.3060985  35.1415783
  24.8877179  26.8659420  36.0179957  25.3191094  24.9761832  35.1312178
  25.1481052  24.4763865  36.0773308  24.8809187  24.3759001  34.3440265
  26.7291597  25.1824051  34.9220899  27.7278272  23.9460917  34.9609394
  27.3429388  23.1405300  36.1474638  27.6259061  23.2879413  33.6340531
  29.0678916  24.6013010  35.1955141  24.9220290  27.1222725  33.9040805
  25.6129909  26.6320981  33.0099789  24.4498720  28.3634645  33.8632630
  23.7796687  29.0635244  34.9243232  24.1784810  28.7070069  35.8740307
  22.7159806  28.8322885  34.8677848  24.0591842  30.5040617  34.6929592
  24.9671174  30.7943074  35.2216499  23.2231854  31.1051138  35.0506513
  24.2209430  30.6421107  33.2159918  24.9084833  31.4622836  33.0093427
  23.3041291  30.7843341  32.6438691  24.8714663  29.3100947  32.8369207
  24.5701068  28.9517311  31.8525636  26.3888866  29.4580445  32.8376929
  26.9269191  30.3827622  33.4459717  27.0681948  28.5425798  32.1536325
  26.5749454  27.8114134  31.6614942  28.5236989  28.5610475  32.0852180
  28.9421972  28.7099863  33.0807909  29.0697022  27.2617395  31.5027202
  28.7719230  26.4257941  32.1356674  28.6704481  27.1169542  30.4988610
  30.4968567  27.3289735  31.4426325  30.8405700  26.5110490  31.0759440
  29.0027489  29.7067474  31.1992007  28.1965772  30.3741124  30.5513324
  30.3138840  29.9246689  31.1791783  30.9349090  29.3172090  31.6943674
  30.8904639  31.0552103  30.4626459  30.2010822  31.8993100  30.4785742
  32.1934790  31.5035108  31.1289096  32.5047209  32.4269212  30.6405031
  31.9680539  31.7051076  32.1761165  33.3086248  30.4864382  31.0405575
  34.3123778  30.6079016  30.0878904  34.2839776  31.4459369  29.4067162
  35.3337398  29.6818542  30.0025387  36.1040439  29.7952630  29.2543214
  35.3613770  28.6165520  30.8755022  36.3770202  27.6919684  30.7942922
  36.6616196  27.4664722  31.6933743  34.3753176  28.4712470  31.8330190
  34.3957958  27.6371150  32.5187765  33.3585719  29.4043520  31.9092120
  32.5838310  29.2988957  32.6547699  31.1476082  30.6882013  29.0042238
  31.1611687  31.5593115  28.1346077  31.3494708  29.3992810  28.7504977
  31.1591204  28.7088486  29.4626558  31.8872887  28.9453414  27.4742169
  31.4331823  29.5059541  26.6567637  33.3986042  29.1779201  27.4163658
  33.7522362  29.4249151  28.4173839  33.8801233  28.2606254  27.0775297
  33.7188555  30.2350890  26.5282870  33.1035559  30.1911078  25.8188105
  31.5762831  27.4684080  27.2582167  32.4869307  26.6520467  27.1174007
  30.2897999  27.1366632  27.2351633  29.1961076  27.9769554  27.6416199
  28.9197339  28.6593283  26.8378257  29.4648638  28.5508915  28.5284494
  28.1456302  26.9678302  27.9182646  27.1612802  27.4321495  27.8585844
  28.2888928  26.5477875  28.9138255  28.3190853  25.9211999  26.8684402
  27.9166014  26.3178220  25.9363476  27.8956922  24.9343900  27.0556409
  29.8437441  25.8265502  26.7780691  30.3213978  25.0434669  27.3681517
  30.2259479  25.6109905  25.3175920  29.9341275  26.4498844  24.4655433
  30.8785620  24.4869033  25.0412791  31.1545420  23.8665377  25.7889962
  31.2432745  24.1288420  23.6760719  30.5230670  24.5499483  22.9741399
  32.6343044  24.6731798  23.3023417  32.8568231  24.4230221  22.2642715
  32.6714877  26.1875959  23.4510263  33.6621995  26.5546269  23.1826228
  32.4510174  26.4567951  24.4847118  31.9258851  26.6350432  22.7916413
  33.6247356  24.0895847  24.1576444  33.6630210  24.6195000  24.9334878
  31.2378904  22.6139039  23.5009761  31.7491840  21.8852889  24.3519832
  30.6588838  22.1522449  22.3971988  30.1550403  22.7025141  21.7345944
  30.7528514  20.7499392  22.0118695  30.1591640  20.1358288  22.6888516
  30.2073115  20.5449562  20.5970192  29.5896329  21.3973433  20.3399621
  31.0624280  20.5305737  19.9332498  29.4428463  19.3283620  20.5074623
  28.8146639  18.8848120  19.1149727  27.3420810  18.8957641  19.3024870
  29.3748489  19.8077607  18.0956888  29.3033518  17.4644173  18.9608301
  32.1988386  20.2694141  22.0912275  32.4573978  19.1256479  22.4642516
  33.1296864  21.1502053  21.7387006  32.9533303  22.1241176  20.6965492
  32.0742960  22.7127241  20.9591160  32.7589302  21.5721339  19.7769723
  34.1841293  22.9454776  20.6130840  33.9945040  23.9699958  20.9332461
  34.5838485  22.9503464  19.5990316  35.1127638  22.2452603  21.5483833
  35.1225722  22.8681209  22.4428370  36.1271955  22.1506952  21.1609746
  34.5508886  20.8616335  21.8840409  34.8464548  20.0810312  21.1830918
  34.8542715  20.3651353  23.2935817  35.4634403  19.3098468  23.4665719
  34.4257447  21.1319323  24.2905121  33.9554425  22.0031730  24.0908756
  34.6546849  20.7738422  25.6850041  35.6790381  20.4251523  25.8174308
  34.4549326  21.9912806  26.5908213  35.2206965  22.7305205  26.3558121
  33.4697783  22.4144193  26.3945445  34.5501485  21.6313608  27.9577733
  33.9064659  22.1380374  28.4192465  33.7177092  19.6471977  26.1082387
  34.0697222  18.8269298  26.9561735  32.5301436  19.6174699  25.5128436
  32.2932382  20.3165161  24.8234146  31.8643933  18.8958280  25.7497174
  38.4740064  31.9250940   5.1033113  33.8918050  27.2030107  36.6736640
  48.7201692  11.2573395  25.2814189  35.2346790  42.6339686  40.7922505
  14.7203455  17.4985590  31.8795019  20.5675728  19.9483044  46.3353186
  24.8100903  30.3843277  59.6115934  24.1362602  30.6874974  60.2200892
  25.1966725  31.1872358  59.2621392  28.7757644  27.9628761  60.8855758
  29.4708548  28.5835454  61.1043072  29.1180794  27.1124112  61.1608136
  22.8672512  28.0690513  59.7930851  22.2946479  28.6880700  59.3401323
  23.4405306  28.6189874  60.3270773  26.0869772  28.3527663  60.9239434
  27.0200445  28.2873224  61.1272309  25.9992985  29.1883930  60.4653966
  28.7157788  27.6693533  57.8843381  28.6371420  27.3353397  58.7779139
  29.5367455  28.1615301  57.8834853  26.2861740  24.9861529  57.5053359
  26.9897590  25.1911531  58.1211015  25.5624389  25.5538290  57.7702443
  28.1948438  25.4244058  59.5551819  29.0294042  24.9925256  59.3729294
  28.0332781  25.2526071  60.4828714  29.6562293  31.8781605  60.0686772
  28.8199605  32.2156292  60.3896047  29.5167063  31.7430585  59.1313909
  29.5300673  31.7228832  57.2684679  28.6530140  31.6017633  56.9046926
  30.0058426  30.9314911  57.0163567  32.2755982  32.6593219  57.0701789
  31.3687438  32.3626332  57.1464503  32.5531963  32.3623038  56.2036075
  31.0454767  29.5180155  57.2113768  31.9073931  29.8435053  57.4709586
  31.2305111  28.7311651  56.6986834  31.9984210  26.7576198  60.4993477
  31.9862880  27.7018038  60.6561748  32.8907632  26.5746343  60.2052938
  24.8100904   7.3905400  46.3361241  24.1362603   7.6937097  46.9446199
  25.1966726   8.1934480  45.9866698  28.7757645   4.9690884  47.6101064
  29.4708549   5.5897576  47.8288379  29.1180795   4.1186235  47.8853442
  22.8672513   5.0752635  46.5176158  22.2946480   5.6942822  46.0646630
  23.4405307   5.6251997  47.0516080  26.0869773   5.3589785  47.6484740
  27.0200446   5.2935347  47.8517616  25.9992986   6.1946052  47.1899273
  28.7157790   4.6755656  44.6088688  28.6371421   4.3415519  45.5024446
  29.5367457   5.1677424  44.6080160  26.2861742   1.9923651  44.2298666
  26.9897592   2.1973654  44.8456322  25.5624390   2.5600413  44.4947750
  28.1948439   2.4306180  46.2797126  29.0294043   1.9987379  46.0974601
  28.0332782   2.2588194  47.2074021  36.8232714  12.9475831  56.3752303
  37.4611124  12.8282579  55.6715643  36.7053557  13.8956675  56.4340255
  29.4909236  14.7538736  52.3010719  28.9274101  14.6628673  51.5327006
  29.3761631  13.9338640  52.7813211  35.0708795  18.4209704  47.6125183
  34.4196774  19.0063784  47.2259197  35.8653158  18.9515899  47.6720221
  28.9964422  15.5098841  48.0112318  29.7695298  14.9627828  47.8725194
  29.3489821  16.3743090  48.2226779  31.3330700  11.6691507  45.6430768
  31.5856220  11.1473028  44.8814231  30.3955259  11.5057652  45.7457451
  36.3773983  10.6727285  53.4505511  37.1637072  10.2546708  53.0995928
  36.6412687  11.5773377  53.6187159  36.5484060  16.1100136  48.1494168
  35.9129893  16.1834762  48.8615072  36.2181466  16.6993734  47.4713247
  31.0526988  13.5719613  47.8455143  30.9363247  12.8964516  48.5136227
  31.1629248  13.0851987  47.0287296  33.3958529  13.0329760  51.5501832
  33.0316737  12.5060381  52.2614753  34.2525645  12.6428229  51.3768317
  33.0364016   8.0619660  46.5463180  33.2038419   8.9299896  46.9133651
  32.8461185   8.2246941  45.6224470  33.0153237  10.5177317  47.5309847
  32.8952862  10.9634368  48.3695327  32.3205826  10.8662635  46.9723385
  30.7760129  23.2880959  51.1799978  30.6984159  24.2388784  51.2588459
  30.1721773  22.9426831  51.8374905  38.7138303  10.9898790  48.3590181
  39.6256159  11.2226177  48.1837879  38.2047950  11.5735835  47.7965260
  37.3207886  15.9724609  55.7503763  36.6916748  16.1370323  55.0479831
  36.9333548  16.3866218  56.5214727  41.1997118  16.9079047  53.1048126
  40.5148156  17.2877948  52.5545160  41.2840967  17.5174373  53.8380074
  32.8735848  15.7099017  53.0153848  33.3374193  15.9886720  52.2258470
  32.6092646  14.8082461  52.8326938  31.8104734  11.8322169  49.8243413
  32.5128777  12.2843213  50.2917339  31.4785362  11.1905988  50.4523306
  33.0498498  18.6463112  49.9005518  32.9144173  19.4914648  50.3290366
  33.5908311  18.8482390  49.1371452  26.5027896  16.1638550  50.4733443
  27.0152416  16.9581800  50.6239008  27.1550608  15.4664840  50.4067045
  28.3122780  19.2804306  52.5556196  28.4889409  20.2022271  52.3677180
  29.1079614  18.9662725  52.9850576  29.4354096  20.7982480  58.5566539
  29.9861521  20.6699543  57.7843533  28.5965572  21.0977369  58.2061432
  24.4676812  14.4927204  51.2493014  25.3052034  14.9024213  51.0326722
  24.6455080  13.5526646  51.2193208  36.3641245  12.1602285  46.9376847
  35.8487868  12.9306889  47.1765234  36.0918553  11.4867421  47.5609908
  33.9488356   7.0051986  51.9962085  33.0929952   6.6158836  51.8167724
  34.3615307   7.0843946  51.1361871  41.3375519  14.9134640  48.8730020
  40.5604961  14.5745799  48.4285182  42.0167000  14.9187263  48.1984985
  36.1527548  10.0329377  48.7636628  35.8477683  10.3475526  49.6146771
  37.1057990  10.1110797  48.8063961  34.5973980  16.1919600  50.4129582
  34.0695341  15.4572360  50.1002819  34.0961482  16.9694277  50.1669550
  39.5766826  14.3868621  55.5296628  38.9190500  15.0767882  55.6176757
  40.3807225  14.7765053  55.8730615  38.3872284  12.7412993  53.5800570
  38.9004166  13.3742985  54.0822280  39.0373508  12.1414189  53.2143930
  29.6562294   8.8843728  46.7932079  28.8199607   9.2218414  47.1141353
  29.5167064   8.7492707  45.8559216  32.7426580  14.0099811  43.4164555
  31.8353641  13.7789064  43.6155704  33.2397612  13.2137430  43.6038536
  35.6494659  22.7197318  46.3361241  34.9756357  23.0229014  46.9446199
  36.0360481  23.5226398  45.9866698  35.6488163  11.6153865  50.9561591
  36.3959982  12.1275262  50.6468713  35.9179753  11.2937917  51.8165984
  33.9214813  14.1112405  47.9388545  33.0126032  13.8271438  48.0361015
  33.9509897  14.5311484  47.0791852  39.1534081  17.7218995  51.7079713
  38.6996408  16.8809905  51.7644903  38.5228047  18.3580393  52.0454493
  38.0967000   8.6510981  52.9380380  37.3589757   8.1388367  53.2690623
  38.3493774   8.2111363  52.1263657  37.5967020  19.5595492  52.6429531
  37.8889994  20.1200549  51.9241896  38.1065640  19.8524053  53.3982690
  32.4699707  11.7241026  54.0398340  32.5248317  10.7714862  53.9640817
  31.6590909  11.8800465  54.5239639  33.6190901  15.6521149  45.2776624
  33.1810331  14.9357008  44.8182261  34.3601342  15.8797264  44.7161715
  30.4092067  10.3418086  51.7988719  29.5959933  10.6412256  52.2053911
  30.9051061   9.9473775  52.5163202  32.5600645  20.3375843  53.7322984
  32.5176824  20.5636689  52.8031516  33.4763344  20.1039217  53.8808785
  41.7364016  13.9278346  51.3352942  41.5981914  14.1179942  50.4074131
  41.3800235  14.6897729  51.7920993  30.6766446  17.2138872  53.5284947
  31.4707044  16.7189192  53.3267522  29.9658138  16.6856735  53.1652652
  35.4961290  19.5956967  57.8797314  35.5498313  20.1647904  58.6475030
  34.6276072  19.7658852  57.5151351  26.9849209  11.3581953  49.6044699
  26.0546797  11.2966409  49.8214661  27.0806681  10.8357906  48.8081341
  33.2537722  17.7867894  57.2082784  33.1148807  17.4186678  58.0808722
  32.4652318  18.3015533  57.0366742  33.8485874  22.8876990  48.5508320
  34.0237629  22.4165033  49.3653943  33.1618662  23.5142756  48.7789581
  34.8042937  17.1649496  54.5971622  34.4692770  17.1250266  55.4929271
  34.3046883  16.4994212  54.1242032  37.7402129  14.5105531  44.8708681
  37.1231299  13.7852359  44.7741734  37.2718617  15.2714891  44.5275755
  28.4146959  26.0366353  55.3248180  28.6543557  26.6684877  56.0027199
  27.5716156  25.6854393  55.6113540  29.5300674   8.7290955  43.9929985
  28.6530141   8.6079756  43.6292232  30.0058428   7.9377033  43.7408874
  32.9274821  21.8445475  57.7289684  32.8544992  22.6500447  58.2408989
  32.4852214  22.0437441  56.9037706  32.7164601  21.0817245  51.2392506
  31.9332122  21.6238926  51.3330731  33.4157346  21.5991225  51.6386747
  35.3873504  21.7432309  59.8847843  36.1001477  22.3779774  59.8123745
  34.8963533  21.8396175  59.0687845  37.1091031  15.6483562  51.4565135
  36.1747310  15.7685025  51.2869839  37.2867700  14.7456029  51.1925145
  40.4963583  11.4900881  51.9915169  40.9624035  12.3228873  51.9175472
  40.9471083  11.0245863  52.6960427  38.5639814  17.8344703  48.9901321
  38.8399658  17.7201297  49.8995195  37.6944313  17.4362187  48.9513494
  35.1993878  22.0831053  52.6334135  35.3816272  21.2652709  53.0961887
  36.0226864  22.2998746  52.1959025  35.5336043  21.0099239  49.8949183
  36.0623810  20.4991693  49.2819345  35.7964263  20.6941769  50.7594716
  28.8891791  22.0614355  52.6546959  28.2202166  22.5460483  52.1710999
  28.7504661  22.3083576  53.5690338  33.0297060  24.0958099  59.2529617
  33.5815368  24.2589720  60.0178703  33.3703253  24.6862537  58.5809642
  24.2579368  10.3232810  49.4342891  24.5532809   9.4143489  49.3809945
  23.3567404  10.3020550  49.1123893  36.1665447  22.0440074  56.2393300
  36.0416587  21.2429814  55.7304245  36.8244538  22.5386268  55.7507269
  38.2300355  19.8449094  57.8672850  37.2830691  19.7254446  57.7951176
  38.5783129  18.9571592  57.9499111  35.2346789  19.6401811  54.0677202
  35.0871751  18.7118518  54.2484772  36.0600282  19.6621901  53.5834277
  29.1009033   8.2919878  49.9257694  29.4405106   8.8205799  49.2036302
  29.5481154   8.6300284  50.7016261  38.8380911  20.4630369  55.1542075
  39.7627458  20.2573231  55.0166526  38.6696214  20.2146771  56.0631416
  31.0877180   6.7894499  48.1250987  31.8085543   7.1675752  47.6214704
  30.4642484   7.5083376  48.2285965  35.2308303   7.4939648  49.0609319
  35.4471917   8.3764286  48.7598147  34.7502370   7.1025862  48.3314961
  38.6276227  20.9816037  50.5104166  38.8013104  20.4162459  49.7578018
  39.1205118  21.7816932  50.3283656  44.4815618  13.7452460  52.1294466
  44.9246764  12.9959785  51.7313589  43.6042128  13.7362596  51.7468198
  39.6151399  20.2982801  47.6101064  40.3102304  20.9189494  47.8288379
  39.9574549  19.4478152  47.8853442  41.5142822  17.7482507  49.1388395
  42.0394147  18.0869780  48.4137715  41.4265175  16.8129522  48.9551530
  33.1983483  23.8154490  53.4983648  32.7588473  23.3230869  54.1916505
  33.9491600  23.2727458  53.2575724  25.6775822  20.0066031  53.5008276
  26.5033842  19.7069803  53.1206920  25.3269874  19.2373653  53.9498065
  30.6457355  19.3592499  55.5705950  30.0237365  18.6963204  55.2708178
  31.3162222  19.3853631  54.8879598  30.2070862  17.9096422  49.0464410
  30.3558983  18.5931887  48.3931083  31.0137306  17.8901513  49.5613866
  27.9623495  13.9361600  50.0525479  27.7169537  13.0323930  50.2505690
  28.1319410  13.9378751  49.1104957  27.2319143   9.6689958  47.5511641
  26.5388388   9.7434313  46.8951677  26.9870895   8.9050301  48.0733158
  33.7066268  20.4044553  46.5176158  33.1340235  21.0234740  46.0646630
  34.2799061  20.9543915  47.0516080  36.9263528  20.6881703  47.6484740
  37.8594201  20.6227265  47.8517616  36.8386740  21.5237970  47.1899273
  39.5551544  20.0047573  44.6088688  39.4765176  19.6707437  45.5024446
  40.3761211  20.4969341  44.6080160  34.0913066  11.7405366  43.8592210
  35.0372171  11.6111574  43.9280628  33.7127311  11.0020028  44.3361639
  32.2755983   9.6655342  43.7947096  31.3687439   9.3688455  43.8709809
  32.5531964   9.3685160  42.9281382  33.8918049   4.2092232  49.9491337
  33.0818777   3.8639317  50.3246583  34.5802466   3.8999775  50.5378948
  31.0454768   6.5242277  43.9359075  31.9073932   6.8497176  44.1954892
  31.2305112   5.7373773  43.4232141  39.1987405   5.3970804  51.0794298
  38.6186074   6.0555608  50.6972350  38.9323337   4.5748148  50.6681715
  37.9812283   7.5570894  50.1350646  37.0938138   7.8420545  49.9170841
  38.3966272   7.3964657  49.2877923  25.9896533  22.1378645  55.2222091
  25.8551001  21.3779046  54.6560089  25.5728595  22.8619545  54.7550880
  37.1255496  17.3215569  44.2298666  37.8291346  17.5265571  44.8456322
  36.4018145  17.8892331  44.4947750  37.9553306  13.0725430  50.3500936
  37.8988508  13.5293981  49.5108569  38.5081649  12.3116115  50.1723779
  29.1465659  23.0347962  55.4340533  29.0298043  23.9793395  55.3319224
  28.3258105  22.7321524  55.8226333  39.0342193  17.7598098  46.2797126
  39.8687797  17.3279296  46.0974601  38.8726536  17.5880112  47.2074021
  38.6888086  14.2630211  47.6453465  38.6336889  14.0974483  46.7041910
  38.0634141  14.9706244  47.8015655  31.9984211   3.7638320  47.2238784
  31.9862881   4.7080160  47.3807055  32.8907633   3.5808466  46.9298245
  30.1720173  23.6876224  58.6496462  31.0747420  23.7199834  58.9662957
  29.9457543  22.7576675  58.6642798  31.9273775  22.4407211  55.3106540
  30.9769406  22.4409072  55.1970913  32.2306261  21.6939945  54.7942575
  40.3302990  30.0830654  52.3010719  39.7667856  29.9920591  51.5327006
  40.2155386  29.2630558  52.7813211  37.8767422  31.5781845  55.1394939
  38.6688714  31.2372670  54.7241238  38.1164073  31.6876820  56.0597092
  45.9102549  33.7501621  47.6125183  45.2590529  34.3355702  47.2259197
  46.7046912  34.2807816  47.6720221  39.8358176  30.8390758  48.0112318
  40.6089052  30.2919746  47.8725194  40.1883575  31.7035008  48.2226779
  42.1724454  26.9983425  45.6430768  42.4249975  26.4764946  44.8814231
  41.2349013  26.8349570  45.7457451  47.2167737  26.0019203  53.4505511
  48.0030826  25.5838626  53.0995928  47.4806441  26.9065295  53.6187159
  47.3877814  31.4392053  48.1494168  46.7523647  31.5126680  48.8615072
  47.0575221  32.0285652  47.4713247  41.8920743  28.9011531  47.8455143
  41.7757001  28.2256434  48.5136227  42.0023003  28.4143904  47.0287296
  44.2352284  28.3621678  51.5501832  43.8710491  27.8352299  52.2614753
  45.0919400  27.9720147  51.3768317  43.8757771  23.3911577  46.5463180
  44.0432173  24.2591814  46.9133651  43.6854940  23.5538859  45.6224470
  40.0845585  28.3042353  54.2465715  39.1596082  28.1718567  54.4543407
  40.3329999  29.0836572  54.7435658  43.8546992  25.8469235  47.5309847
  43.7346617  26.2926286  48.3695327  43.1599580  26.1954553  46.9723385
  37.4454397  27.9475627  55.0809504  37.5746778  28.2010106  55.9948916
  36.7651848  28.5403335  54.7614159  49.5532058  26.3190708  48.3590181
  50.4649914  26.5518095  48.1837879  49.0441705  26.9027752  47.7965260
  43.7129602  31.0390935  53.0153848  44.1767948  31.3178638  52.2258470
  43.4486400  30.1374379  52.8326938  42.6498488  27.1614087  49.8243413
  43.3522531  27.6135131  50.2917339  42.3179117  26.5197906  50.4523306
  36.3923822  25.4197640  55.1260547  35.6022876  25.6755168  54.6500657
  36.8835069  26.2345977  55.2312587  38.3438567  25.7842219  52.0844023
  37.5469731  25.8960913  52.6027519  38.1164160  26.1228871  51.2184914
  34.6761525  25.6728130  57.5575537  34.9269563  26.5575140  57.8233113
  35.2121073  25.4932732  56.7850629  43.8892253  33.9755030  49.9005518
  43.7537928  34.8206565  50.3290366  44.4302065  34.1774307  49.1371452
  37.3421650  31.4930468  50.4733443  37.8546171  32.2873718  50.6239008
  37.9944363  30.7956758  50.4067045  39.1516535  34.6096224  52.5556196
  39.3283163  35.5314189  52.3677180  39.9473368  34.2954643  52.9850576
  35.3070567  29.8219122  51.2493014  36.1445789  30.2316130  51.0326722
  35.4848835  28.8818564  51.2193208  47.2034999  27.4894203  46.9376847
  46.6881622  28.2598807  47.1765234  46.9312307  26.8159339  47.5609908
  44.7882110  22.3343903  51.9962085  43.9323706  21.9450754  51.8167724
  45.2009062  22.4135864  51.1361871  42.5624143  19.9528976  55.4019827
  43.4277139  19.7571785  55.0425716  42.6301651  19.7239328  56.3289183
  52.1769273  30.2426557  48.8730020  51.3998716  29.9037717  48.4285182
  52.8560754  30.2479180  48.1984985  46.9921302  25.3621295  48.7636628
  46.6871438  25.6767444  49.6146771  47.9451744  25.4402715  48.8063961
  45.4367734  31.5211518  50.4129582  44.9089096  30.7864278  50.1002819
  44.9355237  32.2986194  50.1669550  40.1686462  22.1831184  52.7736193
  40.7430214  21.9606366  52.0409386  40.7557444  22.2519879  53.5264795
  40.4956049  24.2135645  46.7932079  39.6593361  24.5510332  47.1141353
  40.3560818  24.0784625  45.8559216  42.4709129  19.0572433  51.5011263
  41.8173542  18.7421450  50.8767878  42.4289603  18.4348174  52.2271086
  43.5820334  29.3391728  43.4164555  42.6747396  29.1080982  43.6155704
  44.0791366  28.5429347  43.6038536  46.4888413  38.0489235  46.3361241
  45.8150112  38.3520932  46.9446199  46.8754235  38.8518316  45.9866698
  45.7046870  25.5454367  55.8258910  44.7869431  25.7669314  55.6680599
  46.1207013  25.6200677  54.9670618  46.4881917  26.9445782  50.9561591
  47.2353736  27.4567180  50.6468713  46.7573507  26.6229835  51.8165984
  44.7608568  29.4404323  47.9388545  43.8519787  29.1563356  48.0361015
  44.7903651  29.8603402  47.0791852  48.9360755  23.9802899  52.9380380
  48.1983511  23.4680285  53.2690623  49.1887528  23.5403280  52.1263657
  35.3296738  27.1609837  51.9203747  35.1321138  26.5679198  51.1954814
  34.7743402  26.8562047  52.6379686  43.3093462  27.0532944  54.0398340
  43.3642071  26.1006780  53.9640817  42.4984664  27.2092383  54.5239639
  44.4584655  30.9813067  45.2776624  44.0204085  30.2648926  44.8182261
  45.1995096  31.2089182  44.7161715  41.2485822  25.6710003  51.7988719
  40.4353687  25.9704174  52.2053911  41.7444816  25.2765692  52.5163202
  52.5757770  29.2570264  51.3352942  52.4375669  29.4471860  50.4074131
  52.2193989  30.0189647  51.7920993  40.7399896  23.2428359  57.4149954
  41.3799276  23.1017118  56.7172918  39.9077427  22.9562872  57.0388556
  41.5160200  32.5430789  53.5284947  42.3100799  32.0481110  53.3267522
  40.8051893  32.0148653  53.1652652  37.8242964  26.6873871  49.6044699
  36.8940552  26.6258327  49.8214661  37.9200436  26.1649824  48.8081341
  37.7428513  23.2128684  52.1922941  38.0035330  24.1274017  52.0832101
  38.5645685  22.7453127  52.3419554  39.2153438  24.6266441  59.3621766
  39.8876492  24.4183803  58.7134414  38.3883225  24.4288527  58.9226998
  44.6879628  38.2168908  48.5508320  44.8631384  37.7456951  49.3653943
  44.0012416  38.8434674  48.7789581  48.5795883  29.8397448  44.8708681
  47.9625054  29.1144277  44.7741734  48.1112372  30.6006809  44.5275755
  40.3694429  24.0582873  43.9929985  39.4923895  23.9371673  43.6292232
  40.8452182  23.2668951  43.7408874  31.8896569  28.8460032  54.0871493
  32.5767609  28.5321762  53.4992508  31.7344698  29.7501397  53.8138744
  36.6931291  23.7350229  58.5156516  36.6089480  23.1275899  57.7806926
  35.8713998  24.2259247  58.5166013  46.8655005  22.2203793  53.8826711
  47.3623705  21.4673755  53.5627782  46.0941987  22.2568109  53.3169921
  47.9484786  30.9775480  51.4565135  47.0141065  31.0976942  51.2869839
  48.1261454  30.0747947  51.1925145  43.4489974  24.3621176  53.6098396
  43.0787761  23.8092216  54.2979302  43.9449066  23.7579309  53.0573396
  51.3357337  26.8192799  51.9915169  51.8017789  27.6520791  51.9175472
  51.7864838  26.3537781  52.6960427  49.4033568  33.1636620  48.9901321
  49.6793412  33.0493215  49.8995195  48.5338067  32.7654105  48.9513494
  46.3729798  36.3391156  49.8949183  46.9017564  35.8283611  49.2819345
  46.6358017  36.0233686  50.7594716  31.4664545  26.9260626  56.3588960
  31.5048645  26.3924216  57.1526078  30.9604838  26.3995831  55.7399937
  38.8455308  21.7725166  59.8551502  38.9096634  22.6339997  59.4428900
  38.7822428  21.1599168  59.1223861  35.0973123  25.6524728  49.4342891
  35.3926564  24.7435406  49.3809945  34.1961159  25.6312467  49.1123893
  38.6267370  23.7280725  55.4170440  37.9053956  24.3416692  55.2777913
  39.4160626  24.2638489  55.3387086  36.8260964  23.3338826  49.5582216
  36.4973671  22.4536205  49.3757322  37.1800335  23.2786494  50.4458606
  39.9402788  23.6211795  49.9257694  40.2798860  24.1497717  49.2036302
  40.3874908  23.9592202  50.7016261  41.9270935  22.1186417  48.1250987
  42.6479297  22.4967670  47.6214704  41.3036239  22.8375294  48.2285965
  46.0702058  22.8231566  49.0609319  46.2865672  23.7056204  48.7598147
  45.5896125  22.4317779  48.3314961  40.8101279  25.7817279  55.6380064
  40.6645860  26.0957582  56.5304345  40.3326483  26.4002180  55.0850962
  42.6697662  22.7719827  55.6860953  42.6559231  21.8760920  55.3493251
  43.3870090  22.7790491  56.3199239  35.2846941  28.3222624  58.5767725
  34.7400409  29.0982432  58.7087999  36.1626291  28.6693428  58.4186846
  42.0734558  21.6534207  50.9548523  42.1950469  20.7250854  51.1539411
  41.7836600  21.6672893  50.0426839  44.9425748  19.3389118  54.0915243
  44.9647445  19.4028451  53.1367223  45.3593807  18.4993627  54.2855749
  50.4545154  35.6274719  47.6101064  51.1496058  36.2481412  47.8288379
  50.7968304  34.7770070  47.8853442  52.3536577  33.0774424  49.1388395
  52.8787901  33.4161697  48.4137715  52.2658929  32.1421440  48.9551530
  36.5169577  35.3357949  53.5008276  37.3427597  35.0361720  53.1206920
  36.1663629  34.5665571  53.9498065  34.7178182  33.2544275  54.4597210
  33.8810090  32.8266449  54.2781211  34.6901827  33.4476718  55.3968001
  41.0464617  33.2388340  49.0464410  41.1952737  33.9223805  48.3931083
  41.8531060  33.2193430  49.5613866  38.8017250  29.2653518  50.0525479
  38.5563292  28.3615848  50.2505690  38.9713164  29.2670668  49.1104957
  38.0712897  24.9981875  47.5511641  37.3782142  25.0726230  46.8951677
  37.8264649  24.2342219  48.0733158  44.5460022  35.7336471  46.5176158
  43.9733989  36.3526658  46.0646630  45.1192816  36.2835832  47.0516080
  47.7657282  36.0173621  47.6484740  48.6987955  35.9519182  47.8517616
  47.6780495  36.8529888  47.1899273  50.3945299  35.3339491  44.6088688
  50.3158930  34.9999355  45.5024446  51.2154966  35.8261259  44.6080160
  44.9306821  27.0697283  43.8592210  45.8765925  26.9403491  43.9280628
  44.5521066  26.3311945  44.3361639  43.1149738  24.9947260  43.7947096
  42.2081193  24.6980372  43.8709809  43.3925719  24.6977078  42.9281382
  34.0327678  26.3153623  54.2446142  33.7130463  25.4618931  53.9520516
  33.4861106  26.5302201  55.0004109  44.7311804  19.5384149  49.9491337
  43.9212532  19.1931234  50.3246583  45.4196221  19.2291693  50.5378948
  46.6602352  18.6162196  51.5715634  47.2133391  19.0357650  52.2305657
  46.8972438  17.6897944  51.6138590  41.8848523  21.8534195  43.9359075
  42.7467687  22.1789093  44.1954892  42.0698867  21.0665691  43.4232141
  33.9015938  29.9356535  56.2139264  33.2079410  29.5210487  55.7009218
  34.6488929  29.9777071  55.6172683  50.0381159  20.7262721  51.0794298
  49.4579828  21.3847525  50.6972350  49.7717092  19.9040066  50.6681715
  35.8152681  29.8674788  54.0905278  35.7923369  29.9662476  53.1387162
  36.1253317  30.7139939  54.4122445  48.8206037  22.8862812  50.1350646
  47.9331892  23.1712462  49.9170841  49.2360026  22.7256575  49.2877923
  47.9649251  32.6507486  44.2298666  48.6685101  32.8557489  44.8456322
  47.2411899  33.2184248  44.4947750  48.7947061  28.4017348  50.3500936
  48.7382262  28.8585899  49.5108569  49.3475403  27.6408032  50.1723779
  49.8735948  33.0890016  46.2797126  50.7081552  32.6571214  46.0974601
  49.7120291  32.9172029  47.2074021  49.5281840  29.5922129  47.6453465
  49.4730644  29.4266400  46.7041910  48.9027895  30.2998162  47.8015655
  34.3174355  24.8290193  61.4714888  34.9633219  24.3189147  61.9602113
  34.1091506  25.5658875  62.0458313  42.8377966  19.0930238  47.2238784
  42.8256635  20.0372078  47.3807055  43.7301387  18.9100383  46.9298245
  51.3349803  39.5427563  46.7932079  50.4987115  39.8802249  47.1141353
  51.1954573  39.4076543  45.8559216  51.2088183  39.3874790  43.9929985
  50.3317650  39.2663591  43.6292232  51.6845937  38.5960869  43.7408874
  53.9543492  40.3239177  43.7947096  53.0474948  40.0272290  43.8709809
  54.2319473  40.0268995  42.9281382  52.7242277  37.1826113  43.9359075
  53.5861441  37.5081011  44.1954892  52.9092621  36.3957609  43.4232141
  53.6771720  34.4222156  47.2238784  53.6650390  35.3663996  47.3807055
  54.5695142  34.2392301  46.9298245  30.7760131   0.2943082  37.9045285
  30.6984160   1.2450907  37.9833766  30.1721774  -0.0511046  38.5620211
  28.4146960   3.0428476  42.0493487  28.6543559   3.6747000  42.7272506
  27.5716157   2.6916516  42.3358846  28.8891792  -0.9323522  39.3792266
  28.2202168  -0.4477394  38.8956306  28.7504662  -0.6854302  40.2935644
  33.0297061   1.1020221  45.9774924  33.5815369   1.2651843  46.7424009
  33.3703255   1.6924659  45.3054949  25.9896534  -0.8559232  41.9467397
  25.8551002  -1.6158831  41.3805395  25.5728597  -0.1318332  41.4796186
  29.1465660   0.0410085  42.1585840  29.0298044   0.9855517  42.0564530
  28.3258106  -0.2616354  42.5471639  30.1720174   0.6938347  45.3741768
  31.0747421   0.7261957  45.6908263  29.9457544  -0.2361202  45.3888104
  44.4716176   5.2357300  43.0359134  44.1334688   5.1198364  42.1479669
  45.3405944   4.8348465  43.0160140  40.3302992   7.0892776  39.0256025
  39.7667857   6.9982713  38.2572313  40.2155387   6.2692681  39.5058518
  37.8767424   8.5843968  41.8640246  38.6688716   8.2434792  41.4486545
  38.1164074   8.6938943  42.7842399  45.9102550  10.7563744  34.3370490
  45.2590530  11.3417824  33.9504504  46.7046913  11.2869939  34.3965528
  39.8358178   7.8452881  34.7357624  40.6089054   7.2981868  34.5970500
  40.1883576   8.7097130  34.9472086  41.6743220   9.1729263  47.9424524
  41.3833086  10.0774894  47.8271190  42.3100205   9.2145791  48.6568593
  42.5999427   6.5506112  44.5325883  43.1962999   6.3262134  43.8182846
  42.6574399   5.8090857  45.1351331  47.3877816   8.4454176  34.8739474
  46.7523649   8.5188802  35.5860379  47.0575222   9.0347775  34.1958554
  41.8920744   5.9073653  34.5700449  41.7757002   5.2318557  35.2381534
  42.0023004   5.4206027  33.7532602  44.2352285   5.3683800  38.2747139
  43.8710492   4.8414421  38.9860060  45.0919401   4.9782269  38.1013624
  46.6333105   8.8590679  44.9374317  46.3333828   9.7615718  44.8290125
  46.2884165   8.5922862  45.7895470  40.0845587   5.3104476  40.9711022
  39.1596083   5.1780690  41.1788714  40.3330000   6.0898695  41.4680964
  37.4454398   4.9537749  41.8054811  37.5746779   5.2072228  42.7194223
  36.7651849   5.5465457  41.4859466  41.6153885  15.6234999  37.9045285
  41.5377915  16.5742824  37.9833766  41.0115529  15.2780872  38.5620211
  48.1601641   8.3078649  42.4749069  47.5310504   8.4724363  41.7725137
  47.7727304   8.7220259  43.2460033  52.0390873   9.2433087  39.8293433
  51.3541911   9.6231988  39.2790466  52.1234723   9.8528414  40.5625381
  43.7129603   8.0453057  39.7399154  44.1767949   8.3240760  38.9503777
  43.4486401   7.1436502  39.5572245  40.6053684   7.5924539  42.6778918
  41.1755041   8.0211807  42.0396402  41.1961796   7.3107123  43.3763103
  36.3923823   2.4259762  41.8505853  35.6022877   2.6817291  41.3745964
  36.8835071   3.2408100  41.9557894  38.3438569   2.7904341  38.8089330
  37.5469732   2.9023036  39.3272826  38.1164161   3.1290994  37.9430220
  44.1744236   9.3149045  46.7571844  44.2388669   9.7769452  47.5930016
  43.4655160   8.6846410  46.8854154  34.6761526   2.6790253  44.2820844
  34.9269565   3.5637263  44.5478420  35.2121075   2.4994854  43.5095936
  43.8892254  10.9817152  36.6250825  43.7537929  11.8268688  37.0535673
  44.4302066  11.1836430  35.8616759  37.3421651   8.4992590  37.1978750
  37.8546172   9.2935840  37.3484315  37.9944364   7.8018881  37.1312351
  39.1516536  11.6158346  39.2801503  39.3283164  12.5376311  39.0922487
  39.9473370  11.3016766  39.7095883  38.4368893   3.6622978  49.1563666
  38.3222408   2.7608236  49.4570765  37.5813410   3.9086675  48.8048483
  40.2747852  13.1336520  45.2811845  40.8255277  13.0053584  44.5088839
  39.4359327  13.4331409  44.9306738  44.0715023   9.3987648  49.6256077
  44.6043359   8.6375936  49.3955385  43.5429104   9.1061300  50.3680231
  35.3070568   6.8281244  37.9738320  36.1445790   7.2378253  37.7572028
  35.4848836   5.8880687  37.9438514  45.4367735   8.5273641  37.1374889
  44.9089097   7.7926400  36.8248126  44.9355238   9.3048317  36.8914857
  50.4160581   6.7222661  42.2541935  49.7584256   7.4121922  42.3422063
  51.2200981   7.1119093  42.5975921  43.5820335   6.3453851  30.1409862
  42.6747397   6.1143104  30.3401011  44.0791367   5.5491470  30.3283843
  46.4888414  15.0551358  33.0606548  45.8150113  15.3583055  33.6691506
  46.8754236  15.8580438  32.7112005  44.7608569   6.4466446  34.6633852
  43.8519788   6.1625478  34.7606321  44.7903653   6.8665524  33.8037159
  49.9927836  10.0573035  38.4325019  49.5390163   9.2163945  38.4890210
  49.3621803  10.6934434  38.7699799  48.4360776  11.8949532  39.3674837
  48.7283750  12.4554589  38.6487203  48.9459396  12.1878093  40.1227996
  35.3296739   4.1671960  38.6449054  35.1321139   3.5741321  37.9200120
  34.7743403   3.8624170  39.3624993  44.4584657   7.9875189  32.0021930
  44.0204087   7.2711048  31.5427568  45.1995098   8.2151304  31.4407022
  43.3994401  12.6729883  40.4568291  43.3570580  12.8990729  39.5276823
  44.3157100  12.4393258  40.6054092  41.5160202   9.5492912  40.2530253
  42.3100800   9.0543232  40.0512828  40.8051894   9.0210775  39.8897959
  46.3355046  11.9311007  44.6042621  46.3892068  12.5001944  45.3720337
  45.4669827  12.1012893  44.2396658  37.8242965   3.6935994  36.3290006
  36.8940553   3.6320449  36.5459968  37.9200437   3.1711946  35.5326647
  45.2943146   6.0971270  46.1629553  46.2235206   6.2482429  45.9898520
  44.8734176   6.1855290  45.3078199  44.0931478  10.1221934  43.9328090
  43.9542563   9.7540718  44.8054029  43.3046074  10.6369573  43.7612048
  44.6879629  15.2231030  35.2753627  44.8631385  14.7519074  36.0899250
  44.0012418  15.8496797  35.5034888  45.6436693   9.5003537  41.3216928
  45.3086525   9.4604307  42.2174578  45.1440638   8.8348253  40.8487338
  39.6180937   4.9071167  46.8469509  39.4800735   4.1751406  47.4481048
  40.5285860   4.8180067  46.5653697  48.5795884   6.8459571  31.5953988
  47.9625055   6.1206399  31.4987041  48.1112373   7.6068931  31.2521062
  42.2463237   4.6191126  46.3353189  42.9562856   3.9784318  46.2939807
  42.2032545   4.8704021  47.2579370  39.2540715  18.3720393  42.0493487
  39.4937313  19.0038917  42.7272506  38.4109911  18.0208433  42.3358846
  31.8896570   5.8522155  40.8116799  32.5767610   5.5383885  40.2237815
  31.7344699   6.7563520  40.5384051  43.7668577  14.1799516  44.4534991
  43.6938748  14.9854487  44.9654296  43.3245970  14.3791481  43.6283012
  43.5558356  13.4171286  37.9637813  42.7725878  13.9592966  38.0576037
  44.2551101  13.9345265  38.3632054  46.2267260  14.0786350  46.6093150
  46.9395232  14.7133814  46.5369051  45.7357289  14.1750216  45.7933152
  47.9484787   7.9837602  38.1810441  47.0141066   8.1039065  38.0115146
  48.1261456   7.0810069  37.9170451  41.2779174  11.8280793  47.4298721
  41.9788633  12.4617276  47.5828115  40.8074289  12.1695525  46.6694360
  49.4033570  10.1698743  35.7146628  49.6793413  10.0555337  36.6240502
  48.5338068   9.7716228  35.6758801  46.0387634  14.4185094  39.3579441
  46.2210028  13.6006750  39.8207194  46.8620620  14.6352786  38.9204331
  46.3729799  13.3453279  36.6194490  46.9017565  12.8345733  36.0064652
  46.6358019  13.0295809  37.4840023  36.8746892  11.3617148  44.3629823
  37.4600329  10.6160836  44.4957727  36.6771730  11.6721105  45.2466487
  39.7285547  14.3968396  39.3792266  39.0595922  14.8814523  38.8956306
  39.5898417  14.6437616  40.2935644  31.4664546   3.9322748  43.0834266
  31.5048646   3.3986339  43.8771384  30.9604839   3.4057954  42.4645244
  43.8690816  16.4312139  45.9774924  44.4209124  16.5943761  46.7424009
  44.2097009  17.0216577  45.3054949  35.0973124   2.6586851  36.1588198
  35.3926565   1.7497529  36.1055251  34.1961160   2.6374590  35.8369200
  47.0059203  14.3794115  42.9638606  46.8810342  13.5783854  42.4549552
  47.6638294  14.8740308  42.4752576  49.0694111  12.1803135  44.5918156
  48.1224447  12.0608486  44.5196483  49.4176884  11.2925633  44.6744418
  46.0740545  11.9755851  40.7922508  45.9265507  11.0472558  40.9730079
  46.8994038  11.9975942  40.3079584  49.6774666  12.7984410  41.8787381
  50.6021214  12.5927271  41.7411832  49.5089970  12.5500811  42.7876723
  49.4669983  13.3170077  37.2349473  49.6406860  12.7516500  36.4823325
  49.9598874  14.1170972  37.0528963  35.2846942   5.3284746  45.3013031
  34.7400410   6.1044554  45.4333306  36.1626292   5.6755551  45.1432153
  50.4545155  12.6336841  34.3346371  51.1496060  13.2543534  34.5533686
  50.7968305  11.7832193  34.6098749  36.0712964   4.4554642  48.1943188
  35.3294700   4.6037278  48.7807819  35.7505709   4.7162908  47.3309938
  52.3536578  10.0836547  35.8633702  52.8787902  10.4223820  35.1383022
  52.2658931   9.1483562  35.6796836  44.0156627  13.9970621  47.9923578
  44.3243753  13.7519767  48.8646278  44.8132109  14.2017259  47.5042449
  44.0377239  16.1508530  40.2228955  43.5982229  15.6584909  40.9161812
  44.7885356  15.6081498  39.9821030  36.5169578  12.3420071  40.2253583
  37.3427598  12.0423843  39.8452227  36.1663630  11.5727694  40.6743372
  41.4851111  11.6946539  42.2951257  40.8631120  11.0317244  41.9953484
  42.1555978  11.7207671  41.6124904  34.7178183  10.2606398  41.1842517
  33.8810091   9.8328572  41.0026518  34.6901828  10.4538841  42.1213308
  41.0464618  10.2450463  35.7709717  41.1952738  10.9285927  35.1176390
  41.8531061  10.2255553  36.2859173  38.8017251   6.2715640  36.7770786
  38.5563293   5.3677970  36.9750996  38.9713166   6.2732791  35.8350264
  44.5460024  12.7398593  33.2421465  43.9733991  13.3588780  32.7891936
  45.1192817  13.2897955  33.7761386  47.7657283  13.0235743  34.3730047
  48.6987956  12.9581305  34.5762922  47.6780496  13.8592010  33.9144579
  50.3945300  12.3401614  31.3333994  50.3158932  12.0061477  32.2269752
  51.2154967  12.8323382  31.3325467  34.0327680   3.3215746  40.9691449
  33.7130464   2.4681054  40.6765823  33.4861108   3.5364324  41.7249416
  37.8107587   6.0378187  44.6860955  38.0293597   6.9695295  44.7048989
  38.2233361   5.6786161  45.4715759  33.9015940   6.9418657  42.9384570
  33.2079411   6.5272610  42.4254525  34.6488931   6.9839194  42.3417989
  35.8152682   6.8736911  40.8150585  35.7923370   6.9724598  39.8632468
  36.1253319   7.7202062  41.1367751  38.4740060   8.9313066  44.9297200
  39.4283314   8.8997008  44.8627131  38.2752584   8.4703690  45.7447425
  39.0639442   7.5014182  47.4967997  39.8832331   7.9958261  47.5202834
  39.3376250   6.5846150  47.4685565  36.8290289  14.4732686  41.9467397
  36.6944757  13.7133086  41.3805395  36.4122351  15.1973585  41.4796186
  47.9649252   9.6569609  30.9543973  48.6685102   9.8619612  31.5701628
  47.2411901  10.2246371  31.2193056  39.9859415  15.3702003  42.1585840
  39.8691799  16.3147435  42.0564530  39.1651861  15.0675564  42.5471639
  49.8735949  10.0952138  33.0042433  50.7081553   9.6633337  32.8219908
  49.7120292   9.9234152  33.9319327  49.5281841   6.5984252  34.3698772
  49.4730645   6.4328523  33.4287216  48.9027897   7.3060284  34.5260962
  34.3174356   1.8352316  48.1960194  34.9633220   1.3251270  48.6847419
  34.1091507   2.5720998  48.7703620  41.0113929  16.0230264  45.3741768
  41.9141175  16.0553875  45.6908263  40.7851299  15.0930715  45.3888104
  42.7667531  14.7761251  42.0351847  41.8163162  14.7763113  41.9216219
  43.0700017  14.0293986  41.5187882  55.3109931  20.5649217  43.0359134
  54.9728442  20.4490282  42.1479669  56.1799699  20.1640383  43.0160140
  51.1696746  22.4184694  39.0256025  50.6061611  22.3274631  38.2572313
  51.0549141  21.5984598  39.5058518  48.7161178  23.9135885  41.8640246
  49.5082470  23.5726710  41.4486545  48.9557828  24.0230861  42.7842399
  50.6751932  23.1744799  34.7357624  51.4482808  22.6273786  34.5970500
  51.0277331  24.0389048  34.9472086  52.5136975  24.5021181  47.9424524
  52.2226841  25.4066812  47.8271190  53.1493959  24.5437709  48.6568593
  53.4393182  21.8798030  44.5325883  54.0356754  21.6554052  43.8182846
  53.4968153  21.1382775  45.1351331  53.0118210  19.3337465  32.3676074
  53.2643731  18.8118986  31.6059537  52.0742769  19.1703610  32.4702758
  52.7314499  21.2365571  34.5700449  52.6150757  20.5610474  35.2381534
  52.8416759  20.7497945  33.7532602  55.0746040  20.6975718  38.2747139
  54.7104247  20.1706339  38.9860060  55.9313156  20.3074187  38.1013624
  54.7151527  15.7265618  33.2708487  54.8825929  16.5945854  33.6378958
  54.5248696  15.8892899  32.3469776  50.9239341  20.6396393  40.9711022
  49.9989838  20.5072607  41.1788714  51.1723754  21.4190613  41.4680964
  54.6940747  18.1823275  34.2555154  54.5740373  18.6280326  35.0940634
  53.9993336  18.5308593  33.6968692  48.2848152  20.2829667  41.8054811
  48.4140533  20.5364146  42.7194223  47.6045604  20.8757375  41.4859466
  52.4547640  30.9526917  37.9045285  52.3771669  31.9034742  37.9833766
  51.8509283  30.6072789  38.5620211  54.5523358  23.3744975  39.7399154
  55.0161703  23.6532678  38.9503777  54.2880156  22.4728419  39.5572245
  51.4447439  22.9216456  42.6778918  52.0148796  23.3503725  42.0396402
  52.0355551  22.6399041  43.3763103  53.4892244  19.4968127  36.5488720
  54.1916287  19.9489171  37.0162646  53.1572872  18.8551946  37.1768613
  47.2317578  17.7551680  41.8505853  46.4416632  18.0109208  41.3745964
  47.7228825  18.5700018  41.9557894  49.1832323  18.1196259  38.8089330
  48.3863486  18.2314953  39.3272826  48.9557915  18.4582911  37.9430220
  55.0137991  24.6440962  46.7571844  55.0782423  25.1061370  47.5930016
  54.3048915  24.0138327  46.8854154  45.5155281  18.0082170  44.2820844
  45.7663319  18.8929180  44.5478420  46.0514829  17.8286772  43.5095936
  54.7286008  26.3109070  36.6250825  54.5931683  27.1560606  37.0535673
  55.2695821  26.5128347  35.8616759  48.1815406  23.8284508  37.1978750
  48.6939926  24.6227758  37.3484315  48.8338119  23.1310798  37.1312351
  49.9910291  26.9450264  39.2801503  50.1676919  27.8668229  39.0922487
  50.7867124  26.6308683  39.7095883  49.2762647  18.9914896  49.1563666
  49.1616162  18.0900153  49.4570765  48.4207165  19.2378593  48.8048483
  51.1141606  28.4628438  45.2811845  51.6649031  28.3345501  44.5088839
  50.2753082  28.7623327  44.9306738  54.9108777  24.7279566  49.6256077
  55.4437114  23.9667854  49.3955385  54.3822858  24.4353218  50.3680231
  46.1464323  22.1573162  37.9738320  46.9839545  22.5670171  37.7572028
  46.3242590  21.2172604  37.9438514  55.6275866  14.6697944  38.7207392
  54.7717462  14.2804794  38.5413030  56.0402818  14.7489904  37.8607177
  53.4017898  12.2883017  42.1265133  54.2670895  12.0925825  41.7671023
  53.4695407  12.0593368  43.0534490  56.2761490  23.8565558  37.1374889
  55.7482851  23.1218318  36.8248126  55.7748993  24.6340235  36.8914857
  51.0080217  14.5185225  39.4981500  51.5823969  14.2960406  38.7654693
  51.5951200  14.5873919  40.2510101  51.3349804  16.5489686  33.5177385
  50.4987117  16.8864372  33.8386660  51.1954574  16.4138665  32.5804522
  53.3102885  11.3926473  38.2256569  52.6567297  11.0775491  37.6013184
  53.2683359  10.7702214  38.9516392  54.4214090  21.6745768  30.1409862
  53.5141152  21.4435022  30.3401011  54.9185122  20.8783388  30.3283843
  55.6002323  21.7758363  34.6633852  54.6913543  21.4917396  34.7606321
  55.6297407  22.1957442  33.8037159  46.1690494  19.4963877  38.6449054
  45.9714894  18.9033238  37.9200120  45.6137158  19.1916088  39.3624993
  54.1487217  19.3886984  40.7643647  54.2035827  18.4360820  40.6886124
  53.3378419  19.5446423  41.2484945  55.2978411  23.3167107  32.0021930
  54.8597841  22.6002966  31.5427568  56.0388852  23.5443222  31.4407022
  52.0879577  18.0064044  38.5234026  51.2747443  18.3058214  38.9299218
  52.5838572  17.6119732  39.2408508  54.2388155  28.0021801  40.4568291
  54.1964334  28.2282647  39.5276823  55.1550854  27.7685175  40.6054092
  51.5793652  15.5782399  44.1395261  52.2193031  15.4371158  43.4418224
  50.7471183  15.2916913  43.7633863  52.3553956  24.8784830  40.2530253
  53.1494555  24.3835150  40.0512828  51.6445648  24.3502693  39.8897959
  48.6636719  19.0227911  36.3290006  47.7334308  18.9612367  36.5459968
  48.7594191  18.5003864  35.5326647  48.5822269  15.5482724  38.9168248
  48.8429086  16.4628057  38.8077408  49.4039441  15.0807167  39.0664860
  50.0547194  16.9620481  46.0867072  50.7270247  16.7537844  45.4379721
  49.2276980  16.7642567  45.6472304  54.9325232  25.4513852  43.9328090
  54.7936318  25.0832636  44.8054029  54.1439828  25.9661491  43.7612048
  55.5273384  30.5522948  35.2753627  55.7025140  30.0810991  36.0899250
  54.8406172  31.1788714  35.5034888  50.4574691  20.2363084  46.8469509
  50.3194489  19.5043323  47.4481048  51.3679615  20.1471984  46.5653697
  53.0856992  19.9483044  46.3353189  53.7956610  19.3076236  46.2939807
  53.0426300  20.1995939  47.2579370  50.0934469  33.7012311  42.0493487
  50.3331067  34.3330835  42.7272506  49.2503666  33.3500351  42.3358846
  51.2088185  16.3936913  30.7175292  50.3317651  16.2725714  30.3537539
  51.6845938  15.6022991  30.4654181  42.7290325  21.1814073  40.8116799
  43.4161365  20.8675803  40.2237815  42.5738454  22.0855437  40.5384051
  47.5325047  16.0704269  45.2401823  47.4483236  15.4629939  44.5052233
  46.7107753  16.5613288  45.2411319  54.6062331  29.5091433  44.4534991
  54.5332503  30.3146405  44.9654296  54.1639724  29.7083399  43.6283012
  54.3952111  28.7463203  37.9637813  53.6119633  29.2884884  38.0576037
  55.0944856  29.2637183  38.3632054  54.2883730  16.6975216  40.3343703
  53.9181517  16.1446256  41.0224608  54.7842822  16.0933349  39.7818703
  52.1172928  27.1572711  47.4298721  52.8182388  27.7909194  47.5828115
  51.6468043  27.4987442  46.6694360  47.7140646  26.6909066  44.3629823
  48.2994083  25.9452754  44.4957727  47.5165485  27.0013023  45.2466487
  50.5679301  29.7260313  39.3792266  49.8989677  30.2106441  38.8956306
  50.4292171  29.9729534  40.2935644  42.3058301  19.2614666  43.0834266
  42.3442400  18.7278257  43.8771384  41.7998594  18.7349872  42.4645244
  54.7084570  31.7604057  45.9774924  55.2602878  31.9235678  46.7424009
  55.0490764  32.3508495  45.3054949  49.6849063  14.1079207  46.5796809
  49.7490390  14.9694037  46.1674206  49.6216184  13.4953208  45.8469167
  45.9366879  17.9878768  36.1588198  46.2320320  17.0789447  36.1055251
  45.0354914  17.9666508  35.8369200  49.4661126  16.0634765  42.1415746
  48.7447711  16.6770732  42.0023220  50.2554381  16.5992530  42.0632392
  47.6654720  15.6692866  36.2827523  47.3367426  14.7890245  36.1002629
  48.0194091  15.6140535  37.1703912  50.7796543  15.9565836  36.6503001
  51.1192616  16.4851757  35.9281609  51.2268664  16.2946242  37.4261567
  52.7664690  14.4540457  34.8496293  53.4873053  14.8321710  34.3460010
  52.1429995  15.1729334  34.9531271  51.6495035  18.1171319  42.3625370
  51.5039615  18.4311623  43.2549652  51.1720238  18.7356220  41.8096269
  53.5091418  15.1073867  42.4106260  53.4952986  14.2114961  42.0738558
  54.2263846  15.1144531  43.0444546  46.1240697  20.6576664  45.3013031
  45.5794165  21.4336472  45.4333306  47.0020047  21.0047468  45.1432153
  52.9128314  13.9888248  37.6793830  53.0344225  13.0604894  37.8784717
  52.6230356  14.0026934  36.7672145  55.7819504  11.6743158  40.8160550
  55.8041201  11.7382491  39.8612529  56.1987563  10.8347667  41.0101056
  46.9106719  19.7846560  48.1943188  46.1688455  19.9329195  48.7807819
  46.5899463  20.0454826  47.3309938  54.8550381  29.3262538  47.9923578
  55.1637508  29.0811685  48.8646278  55.6525863  29.5309177  47.5042449
  54.8770993  31.4800448  40.2228955  54.4375984  30.9876827  40.9161812
  55.6279110  30.9373416  39.9821030  47.3563332  27.6711989  40.2253583
  48.1821352  27.3715761  39.8452227  47.0057384  26.9019611  40.6743372
  52.3244866  27.0238457  42.2951257  51.7024875  26.3609162  41.9953484
  52.9949732  27.0499589  41.6124904  45.5571937  25.5898315  41.1842517
  44.7203846  25.1620490  41.0026518  45.5295583  25.7830759  42.1213308
  51.8858372  25.5742380  35.7709717  52.0346493  26.2577845  35.1176390
  52.6924816  25.5547470  36.2859173  49.6411005  21.6007558  36.7770786
  49.3957047  20.6969888  36.9750996  49.8106920  21.6024708  35.8350264
  48.9106653  17.3335916  34.2756947  48.2175898  17.4080271  33.6196983
  48.6658405  16.5696259  34.7978464  55.3853778  28.0690511  33.2421465
  54.8127745  28.6880698  32.7891936  55.9586572  28.6189873  33.7761386
  53.9543494  17.3301300  30.5192402  53.0474949  17.0334413  30.5955116
  54.2319475  17.0331118  29.6526688  44.8721434  18.6507663  40.9691449
  44.5524218  17.7972972  40.6765823  44.3254862  18.8656242  41.7249416
  48.6501342  21.3670104  44.6860955  48.8687351  22.2987212  44.7048989
  49.0627115  21.0078079  45.4715759  55.5705559  11.8738190  36.6736644
  54.7606288  11.5285275  37.0491890  56.2589976  11.5645733  37.2624255
  52.7242278  14.1888235  30.6604381  53.5861442  14.5143134  30.9200199
  52.9092622  13.4019731  30.1477447  44.7409694  22.2710575  42.9384570
  44.0473165  21.8564528  42.4254525  45.4882685  22.3131111  42.3417989
  46.6546437  22.2028829  40.8150585  46.6317125  22.3016516  39.8632468
  46.9647073  23.0493979  41.1367751  49.3133814  24.2604984  44.9297200
  50.2677068  24.2288926  44.8627131  49.1146338  23.7995607  45.7447425
  49.9033197  22.8306100  47.4967997  50.7226086  23.3250178  47.5202834
  50.1770004  21.9138068  47.4685565  47.6684043  29.8024603  41.9467397
  47.5338511  29.0425004  41.3805395  47.2516106  30.5265503  41.4796186
  50.8253169  30.6993920  42.1585840  50.7085553  31.6439353  42.0564530
  50.0045615  30.3967482  42.5471639  45.1568111  17.1644234  48.1960194
  45.8026974  16.6543188  48.6847419  44.9485262  17.9012915  48.7703620
  53.6771721  11.4284278  33.9484090  53.6650391  12.3726118  34.1052361
  54.5695143  11.2454424  33.6543552  51.8507683  31.3522182  45.3741768
  52.7534930  31.3845792  45.6908263  51.6245053  30.4222633  45.3888104
  53.6061285  30.1053169  42.0351847  52.6556916  30.1055030  41.9216219
  53.9093771  29.3585903  41.5187882  53.5684079  36.5105990  40.8116799
  54.2555119  36.1967720  40.2237815  53.4132208  37.4147355  40.5384051
  53.1452055  34.5906584  43.0834266  53.1836155  34.0570174  43.8771384
  52.6392348  34.0641789  42.4645244  56.3965692  40.9190233  41.1842517
  55.5597600  40.4912407  41.0026518  56.3689337  41.1122676  42.1213308
  55.7115189  33.9799581  40.9691449  55.3917973  33.1264889  40.6765823
  55.1648617  34.1948159  41.7249416  55.5803449  37.6002493  42.9384570
  54.8866920  37.1856445  42.4254525  56.3276440  37.6423029  42.3417989
  52.4547641   7.9589039  24.6290592  52.3771671   8.9096865  24.7079072
  51.8509284   7.6134912  25.2865518  50.0934471  10.7074433  28.7738794
  50.3331069  11.3392958  29.4517812  49.2503667  10.3562473  29.0604153
  50.5679303   6.7322436  26.1037572  49.8989678   7.2168563  25.6201612
  50.4292172   6.9791656  27.0180951  54.7084571   8.7666179  32.7020231
  55.2602879   8.9297801  33.4669316  55.0490765   9.3570617  32.0300255
  47.6684045   6.8086726  28.6712704  47.5338512   6.0487127  28.1050702
  47.2516107   7.5327626  28.2041493  50.8253170   7.7056043  28.8831147
  50.7085555   8.6501475  28.7809837  50.0045617   7.4029604  29.2716946
  51.8507685   8.3584305  32.0987075  52.7534931   8.3907915  32.4153570
  51.6245055   7.4284756  32.1133411  53.5684081  13.5168113  27.5362106
  54.2555120  13.2029843  26.9483121  53.4132209  14.4209478  27.2629357
  53.1452057  11.5968706  29.8079573  53.1836156  11.0632297  30.6016691
  52.6392350  11.0703912  29.1890550  56.3965693  17.9252356  27.9087823
  55.5597602  17.4974530  27.7271824  56.3689339  18.1184799  28.8458614
  55.7115190  10.9861704  27.6936755  55.3917974  10.1327012  27.4011129
  55.1648618  11.2010282  28.4494723  55.5803450  14.6064615  29.6629877
  54.8866921  14.1918568  29.1499831  56.3276441  14.6485152  29.0663296
   3.1313395  22.7197318  46.3361238   2.4575094  23.0229014  46.9446196
   3.5179217  23.5226398  45.9866695   7.0970136  20.2982801  47.6101061
   7.7921040  20.9189494  47.8288376   7.4393286  19.4478152  47.8853439
   1.1885004  20.4044553  46.5176155   0.6158971  21.0234740  46.0646627
   1.7617798  20.9543915  47.0516077   4.4082264  20.6881703  47.6484737
   5.3412937  20.6227265  47.8517613   4.3205477  21.5237970  47.1899270
   7.0370281  20.0047573  44.6088685   6.9583912  19.6707437  45.5024443
   7.8579948  20.4969341  44.6080157   4.6074233  17.3215569  44.2298663
   5.3110083  17.5265571  44.8456319   3.8836881  17.8892331  44.4947747
   6.5160930  17.7598098  46.2797123   7.3506534  17.3279296  46.0974598
   6.3545273  17.5880112  47.2074018  15.1445205  28.2767749  56.3752300
  15.7823615  28.1574496  55.6715640  15.0266048  29.2248593  56.4340252
   7.8121727  30.0830654  52.3010715   7.2486592  29.9920591  51.5327003
   7.6974122  29.2630558  52.7813208  13.3921286  33.7501621  47.6125180
  12.7409265  34.3355702  47.2259194  14.1865649  34.2807816  47.6720218
   7.3176913  30.8390758  48.0112315   8.0907789  30.2919746  47.8725190
   7.6702312  31.7035008  48.2226776   9.6543191  26.9983425  45.6430765
   9.9068711  26.4764946  44.8814228   8.7167750  26.8349570  45.7457448
  14.6986474  26.0019203  53.4505508  15.4849563  25.5838626  53.0995925
  14.9625178  26.9065295  53.6187156  14.8696551  31.4392053  48.1494165
  14.2342384  31.5126680  48.8615069  14.5393957  32.0285652  47.4713244
  20.0994901  25.9394436  54.3538486  20.8320073  25.3693653  54.5876316
  19.3434256  25.5516037  54.7944992   9.3739479  28.9011531  47.8455140
   9.2575738  28.2256434  48.5136224   9.4841739  28.4143904  47.0287293
  11.7171020  28.3621678  51.5501829  11.3529228  27.8352299  52.2614750
  12.5738136  27.9720147  51.3768314  11.3576507  23.3911577  46.5463177
  11.5250910  24.2591814  46.9133648  11.1673676  23.5538859  45.6224467
  11.3365728  25.8469235  47.5309844  11.2165353  26.2926286  48.3695324
  10.6418317  26.1954553  46.9723382   9.0972620  38.6172877  51.1799975
   9.0196650  39.5680702  51.2588456   8.4934264  38.2718749  51.8374902
  17.0350794  26.3190708  48.3590178  17.9468650  26.5518095  48.1837876
  16.5260441  26.9027752  47.7965257  15.6420377  31.3016526  55.7503760
  15.0129239  31.4662241  55.0479827  15.2546039  31.7158136  56.5214724
  19.5209609  32.2370964  53.1048123  18.8360647  32.6169866  52.5545157
  19.6053458  32.8466291  53.8380071  11.1948339  31.0390935  53.0153845
  11.6586684  31.3178638  52.2258467  10.9305137  30.1374379  52.8326935
  10.1317225  27.1614087  49.8243410  10.8341268  27.6135131  50.2917336
   9.7997853  26.5197906  50.4523303  17.8906368  32.7602879  57.8765824
  18.7123812  32.3583066  57.5948506  17.8868771  32.6571113  58.8281940
  25.9812361  29.1041627  54.2250796  25.2276070  28.5349025  54.0694800
  26.1159902  29.0704292  55.1721430  11.3710989  33.9755030  49.9005515
  11.2356664  34.8206565  50.3290363  11.9120802  34.1774307  49.1371449
   4.8240387  31.4930468  50.4733440   5.3364907  32.2873718  50.6239005
   5.4763099  30.7956758  50.4067042   6.6335271  34.6096224  52.5556193
   6.8101900  35.5314189  52.3677177   7.4292105  34.2954643  52.9850573
   2.7889303  29.8219122  51.2493011   3.6264525  30.2316130  51.0326718
   2.9667571  28.8818564  51.2193205  14.6853736  27.4894203  46.9376844
  14.1700359  28.2598807  47.1765231  14.4131044  26.8159339  47.5609905
  12.2700847  22.3343903  51.9962082  11.4142443  21.9450754  51.8167721
  12.6827798  22.4135864  51.1361868  19.6588010  30.2426557  48.8730017
  18.8817452  29.9037717  48.4285179  20.3379491  30.2479180  48.1984982
  14.4740039  25.3621295  48.7636625  14.1690174  25.6767444  49.6146768
  15.4270481  25.4402715  48.8063958  12.9186471  31.5211518  50.4129579
  12.3907832  30.7864278  50.1002816  12.4173973  32.2986194  50.1669547
  17.8979317  29.7160538  55.5296625  17.2402991  30.4059800  55.6176754
  18.7019716  30.1056970  55.8730611  16.7084775  28.0704911  53.5800567
  17.2216657  28.7034903  54.0822277  17.3585999  27.4706107  53.2143927
   7.9774785  24.2135645  46.7932076   7.1412098  24.5510332  47.1141350
   7.8379555  24.0784625  45.8559213  11.0639071  29.3391728  43.4164552
  10.1566132  29.1080982  43.6155701  11.5610103  28.5429347  43.6038533
  13.9707150  38.0489235  46.3361238  13.2968848  38.3520932  46.9446196
  14.3572972  38.8518316  45.9866695  13.9700654  26.9445782  50.9561588
  14.7172473  27.4567180  50.6468710  14.2392244  26.6229835  51.8165981
  12.2427304  29.4404323  47.9388542  11.3338523  29.1563356  48.0361012
  12.2722388  29.8603402  47.0791849  17.4746572  33.0510913  51.7079710
  17.0208899  32.2101822  51.7644900  16.8440538  33.6872311  52.0454490
  16.4179491  23.9802899  52.9380377  15.6802248  23.4680285  53.2690620
  16.6706265  23.5403280  52.1263654  15.9179511  34.8887409  52.6429528
  16.2102485  35.4492466  51.9241893  16.4278131  35.1815970  53.3982687
  10.7912198  27.0532944  54.0398337  10.8460808  26.1006780  53.9640814
   9.9803400  27.2092383  54.5239636  11.9403392  30.9813067  45.2776621
  11.5022822  30.2648926  44.8182258  12.6813833  31.2089182  44.7161712
   8.7304558  25.6710003  51.7988716   7.9172424  25.9704174  52.2053908
   9.2263552  25.2765692  52.5163198  10.8813136  35.6667760  53.7322981
  10.8389315  35.8928607  52.8031513  11.7975835  35.4331135  53.8808782
  20.0576507  29.2570264  51.3352939  19.9194405  29.4471860  50.4074128
  19.7012726  30.0189647  51.7920990  20.0845886  31.3246791  56.3464211
  20.5182393  31.2322080  57.1947265  20.7977467  31.3004291  55.7084227
   8.9978937  32.5430789  53.5284944   9.7919535  32.0481110  53.3267519
   8.2870629  32.0148653  53.1652649   5.3061700  26.6873871  49.6044696
   4.3759288  26.6258327  49.8214658   5.4019172  26.1649824  48.8081338
  20.9461436  31.3670491  58.8797096  21.1397326  32.2716302  59.1256371
  20.8462054  30.9077911  59.7135681  12.1698365  38.2168908  48.5508317
  12.3450120  37.7456951  49.3653940  11.4831153  38.8434674  48.7789578
  13.1255428  32.4941414  54.5971618  12.7905261  32.4542184  55.4929268
  12.6259374  31.8286130  54.1242029  16.0614620  29.8397448  44.8708678
  15.4443790  29.1144277  44.7741731  15.5931108  30.6006809  44.5275752
   7.8513166  24.0582873  43.9929982   6.9742632  23.9371673  43.6292229
   8.3270919  23.2668951  43.7408871  11.0377092  36.4109163  51.2392503
  10.2544613  36.9530843  51.3330727  11.7369837  36.9283143  51.6386744
  22.2003499  27.9244158  55.5245000  22.1893375  28.8068873  55.1538933
  21.3320878  27.5715709  55.3299537  15.4303522  30.9775480  51.4565132
  14.4959801  31.0976942  51.2869836  15.6080191  30.0747947  51.1925142
  18.8176074  26.8192799  51.9915166  19.2836526  27.6520791  51.9175468
  19.2683574  26.3537781  52.6960424  16.8852305  33.1636620  48.9901318
  17.1612149  33.0493215  49.8995192  16.0156804  32.7654105  48.9513491
  13.5206369  37.4122971  52.6334131  13.7028763  36.5944627  53.0961884
  14.3439355  37.6290663  52.1959021  13.8548534  36.3391156  49.8949180
  14.3836301  35.8283611  49.2819342  14.1176754  36.0233686  50.7594713
   2.5791859  25.6524728  49.4342888   2.8745300  24.7435406  49.3809942
   1.6779895  25.6312467  49.1123890  14.4877938  37.3731992  56.2393296
  14.3629078  36.5721732  55.7304242  15.1457029  37.8678185  55.7507266
  16.5512846  35.1741012  57.8672847  15.6043182  35.0546363  57.7951173
  16.8995620  34.2863510  57.9499108  13.5559280  34.9693728  54.0677199
  13.4084242  34.0410436  54.2484769  14.3812773  34.9913819  53.5834274
   7.4221524  23.6211795  49.9257691   7.7617597  24.1497717  49.2036299
   7.8693645  23.9592202  50.7016257  17.1593402  35.7922287  55.1542072
  18.0839949  35.5865148  55.0166523  16.9908705  35.5438688  56.0631413
   9.4089671  22.1186417  48.1250984  10.1298034  22.4967670  47.6214701
   8.7854975  22.8375294  48.2285962  13.5520794  22.8231566  49.0609316
  13.7684409  23.7056204  48.7598144  13.0714861  22.4317779  48.3314958
  16.9488718  36.3107954  50.5104163  17.1225595  35.7454377  49.7578015
  17.4417609  37.1108849  50.3283653  22.8028109  29.0744377  52.1294463
  23.2459255  28.3251703  51.7313586  21.9254619  29.0654514  51.7468195
  17.9363890  35.6274719  47.6101061  18.6314795  36.2481412  47.8288376
  18.2787040  34.7770070  47.8853439  19.8355313  33.0774424  49.1388392
  20.3606638  33.4161697  48.4137712  19.7477666  32.1421440  48.9551527
   8.5283353  33.2388340  49.0464407   8.6771474  33.9223805  48.3931080
   9.3349797  33.2193430  49.5613863  22.3460974  30.5449616  54.5216910
  23.1807865  30.9839420  54.6854471  22.4820103  30.0688269  53.7025156
   6.2835986  29.2653518  50.0525476   6.0382028  28.3615848  50.2505686
   6.4531901  29.2670668  49.1104954   5.5531634  24.9981875  47.5511638
   4.8600879  25.0726230  46.8951674   5.3083386  24.2342219  48.0733155
  12.0278759  35.7336471  46.5176155  11.4552726  36.3526658  46.0646627
  12.6011552  36.2835832  47.0516077  15.2476019  36.0173621  47.6484737
  16.1806692  35.9519182  47.8517613  15.1599231  36.8529888  47.1899270
  17.8764035  35.3339491  44.6088685  17.7977667  34.9999355  45.5024443
  18.6973702  35.8261259  44.6080157  20.5742226  28.2001230  57.8165003
  20.5418547  27.2617231  58.0024687  21.1842850  28.2785267  57.0830828
  12.4125557  27.0697283  43.8592207  13.3584662  26.9403491  43.9280625
  12.0339802  26.3311945  44.3361635  26.3918776  29.2617237  56.9571040
  27.1222165  29.0002525  57.5178743  25.7825722  28.5245959  56.9973108
  24.4734073  27.4025100  57.5545491  23.7467237  27.2681065  56.9461983
  24.0581360  27.7101928  58.3602209  10.5968474  24.9947260  43.7947093
   9.6899930  24.6980372  43.8709806  10.8744455  24.6977078  42.9281379
  12.2130540  19.5384149  49.9491334  11.4031268  19.1931234  50.3246580
  12.9014957  19.2291693  50.5378945   9.3667259  21.8534195  43.9359072
  10.2286423  22.1789093  44.1954889   9.5517603  21.0665691  43.4232138
  17.5199896  20.7262721  51.0794295  16.9398565  21.3847525  50.6972347
  17.2535828  19.9040066  50.6681712  16.3024774  22.8862812  50.1350643
  15.4150629  23.1712462  49.9170838  16.7178763  22.7256575  49.2877920
  19.6539310  22.9109333  53.8504982  20.4299700  23.4005785  54.1229599
  18.9287444  23.3367387  54.3076852  22.0911868  23.6236952  54.9078923
  22.6856359  23.3832688  54.1972231  22.1638452  22.9044083  55.5352459
  15.4467987  32.6507486  44.2298663  16.1503837  32.8557489  44.8456319
  14.7230636  33.2184248  44.4947747  16.2765797  28.4017348  50.3500933
  16.2200999  28.8585899  49.5108566  16.8294140  27.6408032  50.1723776
  20.0870603  24.1907080  51.1751053  19.8307537  23.7903715  52.0059260
  19.4623471  24.9050874  51.0501192  24.3982941  26.9303153  53.6822344
  23.8382499  26.9996342  54.4553906  23.7926444  26.7544137  52.9621840
  17.3554684  33.0890016  46.2797123  18.1900288  32.6571214  46.0974598
  17.1939027  32.9172029  47.2074018  17.0100577  29.5922129  47.6453462
  16.9549380  29.4266400  46.7041906  16.3846632  30.2998162  47.8015652
  10.3196702  19.0930238  47.2238781  10.3075372  20.0372078  47.3807052
  11.2120124  18.9100383  46.9298242  18.6515481  45.4122571  52.3010715
  18.0880347  45.3212508  51.5327003  18.5367877  44.5922476  52.7813208
  24.2315040  49.0793539  47.6125180  23.5803020  49.6647619  47.2259194
  25.0259403  49.6099734  47.6720218  18.1570667  46.1682676  48.0112315
  18.9301543  45.6211663  47.8725190  18.5096066  47.0326925  48.2226776
  20.4936945  42.3275342  45.6430765  20.7462466  41.8056864  44.8814228
  19.5561504  42.1641488  45.7457448  25.5380228  41.3311121  53.4505508
  26.3243317  40.9130544  53.0995925  25.8018932  42.2357213  53.6187156
  25.7090305  46.7683971  48.1494165  25.0736138  46.8418597  48.8615069
  25.3787712  47.3577570  47.4713244  20.2133234  44.2303448  47.8455140
  20.0969492  43.5548352  48.5136224  20.3235494  43.7435822  47.0287293
  22.5564775  43.6913595  51.5501829  22.1922982  43.1644216  52.2614750
  23.4131891  43.3012064  51.3768314  22.1970262  38.7203495  46.5463177
  22.3644664  39.5883731  46.9133648  22.0067431  38.8830777  45.6224467
  18.4058076  43.6334271  54.2465712  17.4808573  43.5010485  54.4543404
  18.6542490  44.4128490  54.7435654  22.1759483  41.1761153  47.5309844
  22.0559108  41.6218203  48.3695324  21.4812071  41.5246470  46.9723382
  27.8744549  41.6482626  48.3590178  28.7862405  41.8810012  48.1837876
  27.3654196  42.2319670  47.7965257  25.2180524  37.8240662  56.6080039
  24.3565003  38.1221915  56.8996777  25.2442958  38.0411061  55.6761072
  22.0342093  46.3682852  53.0153845  22.4980439  46.6470555  52.2258467
  21.7698891  45.4666297  52.8326935  20.9710979  42.4906005  49.8243410
  21.6735022  42.9427048  50.2917336  20.6391608  41.8489823  50.4523303
  14.7136313  40.7489557  55.1260543  13.9235367  41.0047086  54.6500654
  15.2047560  41.5637895  55.2312584  16.6651058  41.1134137  52.0844020
  15.8682222  41.2252831  52.6027516  16.4376651  41.4520789  51.2184911
  22.2104744  49.3046947  49.9005515  22.0750419  50.1498483  50.3290363
  22.7514556  49.5066225  49.1371449  15.6634141  46.8222385  50.4733440
  16.1758662  47.6165636  50.6239005  16.3156854  46.1248676  50.4067042
  17.4729026  49.9388142  52.5556193  17.6495654  50.8606106  52.3677177
  18.2685859  49.6246561  52.9850573  25.5597207  32.8277509  58.4304409
  25.2161477  33.7179151  58.3543519  25.9276170  32.6379167  57.5673994
  13.6283058  45.1511040  51.2493011  14.4658280  45.5608048  51.0326718
  13.8061326  44.2110482  51.2193205  25.5247490  42.8186120  46.9376844
  25.0094113  43.5890725  47.1765231  25.2524798  42.1451256  47.5609905
  23.1094601  37.6635821  51.9962082  22.2536197  37.2742671  51.8167721
  23.5221553  37.7427782  51.1361868  24.6393748  35.1982164  56.3953642
  24.1358543  35.1612299  55.5821447  24.9324355  36.1074907  56.4550298
  20.8836634  35.2820894  55.4019824  21.7489630  35.0863703  55.0425713
  20.9514142  35.0531246  56.3289180  30.4981764  45.5718475  48.8730017
  29.7211207  45.2329634  48.4285179  31.1773245  45.5771098  48.1984982
  25.3133793  40.6913212  48.7636625  25.0083929  41.0059361  49.6146768
  26.2664235  40.7694632  48.8063958  23.7580225  46.8503436  50.4129579
  23.2301587  46.1156195  50.1002816  23.2567728  47.6278112  50.1669547
  18.4898953  37.5123102  52.7736190  19.0642705  37.2898283  52.0409383
  19.0769935  37.5811796  53.5264792  18.8168540  39.5427563  46.7932076
  17.9805852  39.8802249  47.1141350  18.6773309  39.4076543  45.8559213
  20.7921620  34.3864351  51.5011260  20.1386033  34.0713368  50.8767875
  20.7502095  33.7640091  52.2271083  21.9032825  44.6683646  43.4164552
  20.9959887  44.4372899  43.6155701  22.4003857  43.8721265  43.6038533
  24.8100904  53.3781153  46.3361238  24.1362603  53.6812850  46.9446196
  25.1966726  54.1810233  45.9866695  24.0259361  40.8746284  55.8258907
  23.1081922  41.0961231  55.6680595  24.4419504  40.9492595  54.9670615
  24.8094408  42.2737700  50.9561588  25.5566227  42.7859097  50.6468710
  25.0785998  41.9521753  51.8165981  23.0821059  44.7696241  47.9388542
  22.1732278  44.4855274  48.0361012  23.1116142  45.1895319  47.0791849
  27.2573246  39.3094816  52.9380377  26.5196002  38.7972202  53.2690620
  27.5100019  38.8695198  52.1263654  27.3584873  32.0871068  53.5322146
  27.6643750  31.2268432  53.2448061  28.0837478  32.6788688  53.3321140
  13.6509229  42.4901755  51.9203744  13.4533629  41.8971116  51.1954811
  13.0955893  42.1853965  52.6379683  21.6305953  42.3824861  54.0398337
  21.6854562  41.4298698  53.9640814  20.8197155  42.5384300  54.5239636
  22.7797146  46.3104984  45.2776621  22.3416576  45.5940843  44.8182258
  23.5207587  46.5381099  44.7161712  19.5698313  41.0001921  51.7988716
  18.7566178  41.2996092  52.2053908  20.0657307  40.6057610  52.5163198
  30.8970261  44.5862181  51.3352939  30.7588160  44.7763777  50.4074128
  30.5406480  45.3481564  51.7920990  19.0612387  38.5720277  57.4149951
  19.7011767  38.4309036  56.7172914  18.2289918  38.2854790  57.0388553
  19.8372691  47.8722707  53.5284944  20.6313290  47.3773027  53.3267519
  19.1264384  47.3440570  53.1652649  16.1455455  42.0165789  49.6044696
  15.2153043  41.9550244  49.8214658  16.2412927  41.4941742  48.8081338
  16.0641004  38.5420602  52.1922938  16.3247821  39.4565935  52.0832098
  16.8858176  38.0745044  52.3419551  23.0092119  53.5460825  48.5508317
  23.1843875  53.0748869  49.3653940  22.3224907  54.1726592  48.7789578
  26.9008374  45.1689366  44.8708678  26.2837545  44.4436194  44.7741731
  26.4324863  45.9298726  44.5275752  18.6906920  39.3874790  43.9929982
  17.8136386  39.2663591  43.6292229  19.1664673  38.5960869  43.7408871
  25.1867496  37.5495710  53.8826708  25.6836196  36.7965673  53.5627779
  24.4154478  37.5860027  53.3169918  26.2697277  46.3067397  51.4565132
  25.3353556  46.4268860  51.2869836  26.4473945  45.4039864  51.1925142
  21.7702465  39.6913093  53.6098393  21.4000252  39.1384134  54.2979298
  22.2661557  39.0871227  53.0573393  29.6569828  42.1484717  51.9915166
  30.1230280  42.9812708  51.9175468  30.1077329  41.6829698  52.6960424
  27.7246059  48.4928538  48.9901318  28.0005903  48.3785133  49.8995192
  26.8550558  48.0946023  48.9513491  27.6286491  34.5165304  56.0306067
  26.7149571  34.7469531  56.1988274  28.0579592  34.6003748  56.8820100
  24.6942289  51.6683074  49.8949180  25.2230055  51.1575529  49.2819342
  24.9570508  51.3525604  50.7594713  17.1667799  37.1017084  59.8551499
  17.2309125  37.9631915  59.4428897  17.1034919  36.4891086  59.1223857
  13.4185614  40.9816646  49.4342888  13.7139055  40.0727324  49.3809942
  12.5173650  40.9604385  49.1123890  16.9479861  39.0572642  55.4170437
  16.2266447  39.6708610  55.2777910  17.7373117  39.5930407  55.3387083
  15.1473455  38.6630743  49.5582213  14.8186162  37.7828122  49.3757319
  15.5012826  38.6078412  50.4458602  18.2615279  38.9503713  49.9257691
  18.6011351  39.4789634  49.2036299  18.7087399  39.2884119  50.7016257
  20.9558719  37.3340764  59.3760759  20.6155540  36.5348577  59.7781439
  20.2497726  37.6342475  58.8037592  21.6075191  34.4190076  57.8288082
  22.4301261  33.9450554  57.7066972  21.8513255  35.1980560  58.3286768
  20.2483426  37.4478335  48.1250984  20.9691788  37.8259587  47.6214701
  19.6248730  38.1667211  48.2285962  24.3914549  38.1523484  49.0609316
  24.6078163  39.0348122  48.7598144  23.9108616  37.7609697  48.3314958
  19.1313770  41.1109197  55.6380061  18.9858351  41.4249500  56.5304342
  18.6538974  41.7294097  55.0850959  20.9910153  38.1011745  55.6860950
  20.9771722  37.2052838  55.3493248  21.7082581  38.1082409  56.3199236
  22.8436284  38.5349085  57.7314078  22.5854061  39.4566156  57.7298408
  22.3121324  38.1379520  58.4214542  20.3947049  36.9826125  50.9548520
  20.5162960  36.0542771  51.1539408  20.1049091  36.9964811  50.0426836
  23.2638239  34.6681036  54.0915240  23.2859936  34.7320369  53.1367220
  23.6806298  33.8285544  54.2855746  28.7757645  50.9566637  47.6101061
  29.4708549  51.5773329  47.8288376  29.1180795  50.1061988  47.8853439
  30.6749068  48.4066342  49.1388392  31.2000392  48.7453615  48.4137712
  30.5871421  47.4713357  48.9551527  19.3677108  48.5680258  49.0464407
  19.5165228  49.2515722  48.3931080  20.1743551  48.5485348  49.5613863
  17.1229741  44.5945435  50.0525476  16.8775783  43.6907765  50.2505686
  17.2925655  44.5962586  49.1104954  16.3925388  40.3273793  47.5511638
  15.6994633  40.4018148  46.8951674  16.1477140  39.5634137  48.0733155
  25.0639045  31.8869394  54.9551129  25.3440799  31.2192583  55.5811555
  25.8489652  32.0798490  54.4425792  22.8672513  51.0628388  46.5176155
  22.2946480  51.6818575  46.0646627  23.4405307  51.6127750  47.0516077
  26.0869773  51.3465538  47.6484737  27.0200446  51.2811100  47.8517613
  25.9992986  52.1821805  47.1899270  28.7157790  50.6631409  44.6088685
  28.6371421  50.3291272  45.5024443  29.5367457  51.1553177  44.6080157
  23.2519312  42.3989201  43.8592207  24.1978417  42.2695409  43.9280625
  22.8733557  41.6603863  44.3361635  29.2241196  34.0645207  53.8219099
  29.0266017  33.7560295  54.7062431  29.8340902  34.7906846  53.9517029
  21.4362229  40.3239177  43.7947093  20.5293684  40.0272290  43.8709806
  21.7138210  40.0268995  42.9281379  23.0524295  34.8676067  49.9491334
  22.2425023  34.5223152  50.3246580  23.7408712  34.5583611  50.5378945
  24.9814843  33.9454114  51.5715630  25.5345882  34.3649567  52.2305654
  25.2184929  33.0189862  51.6138586  20.2061014  37.1826113  43.9359072
  21.0680178  37.5081011  44.1954889  20.3911358  36.3957609  43.4232138
  28.3593650  36.0554639  51.0794295  27.7792319  36.7139443  50.6972347
  28.0929583  35.2331984  50.6681712  26.8097216  35.4559697  53.2815615
  27.3096995  35.5676231  52.4729934  27.4532824  35.1520750  53.9216424
  27.1418528  38.2154729  50.1350643  26.2544383  38.5004380  49.9170838
  27.5572517  38.0548493  49.2877920  30.4933064  38.2401250  53.8504982
  31.2693454  38.7297703  54.1229599  29.7681198  38.6659305  54.3076852
  26.2861742  47.9799404  44.2298663  26.9897592  48.1849407  44.8456319
  25.5624390  48.5476166  44.4947747  27.1159552  43.7309265  50.3500933
  27.0594753  44.1877817  49.5108566  27.6687894  42.9699950  50.1723776
  30.9264358  39.5198997  51.1751053  30.6701292  39.1195633  52.0059260
  30.3017226  40.2342791  51.0501192  28.1948439  48.4181933  46.2797123
  29.0294043  47.9863132  46.0974598  28.0332782  48.2463947  47.2074018
  27.8494331  44.9214047  47.6453462  27.7943135  44.7558318  46.7041906
  27.2240386  45.6290080  47.8015652  21.1590457  34.4222156  47.2238781
  21.1469126  35.3663996  47.3807052  22.0513878  34.2392301  46.9298242
  24.9742576  31.0164932  51.4784718  24.2074972  30.4623419  51.6241400
  25.3853281  31.0886801  52.3398869  29.6562294  54.8719481  46.7932076
  28.8199607  55.2094167  47.1141350  29.5167064  54.7368460  45.8559213
  29.5300674  54.7166708  43.9929982  28.6530141  54.5955509  43.6292229
  30.0058428  53.9252786  43.7408871  32.2755983  55.6531095  43.7947093
  31.3687439  55.3564208  43.8709806  32.5531964  55.3560913  42.9281379
  31.0454768  52.5118030  43.9359072  31.9073932  52.8372929  44.1954889
  31.2305112  51.7249526  43.4232138  31.9984211  49.7514073  47.2238781
  31.9862881  50.6955913  47.3807052  32.8907633  49.5684219  46.9298242
  15.1445206   5.2829872  43.0997606  15.7823616   5.1636619  42.3960946
  15.0266049   6.2310716  43.1585559   7.8121728   7.0892776  39.0256022
   7.2486593   6.9982713  38.2572310   7.6974123   6.2692681  39.5058515
  13.3921287  10.7563744  34.3370487  12.7409267  11.3417824  33.9504501
  14.1865650  11.2869939  34.3965524   7.3176914   7.8452881  34.7357621
   8.0907790   7.2981868  34.5970497   7.6702313   8.7097130  34.9472083
   9.6543192   4.0045547  32.3676071   9.9068713   3.4827068  31.6059534
   8.7167751   3.8411693  32.4702755  14.6986475   3.0081326  40.1750814
  15.4849564   2.5900749  39.8241231  14.9625179   3.9127418  40.3432463
  14.8696552   8.4454176  34.8739471  14.2342385   8.5188802  35.5860376
  14.5393959   9.0347775  34.1958551  20.0994902   2.9456559  41.0783793
  20.8320074   2.3755776  41.3121622  19.3434258   2.5578159  41.5190299
   9.3739481   5.9073653  34.5700446   9.2575739   5.2318557  35.2381531
   9.4841741   5.4206027  33.7532599  11.7171022   5.3683800  38.2747135
  11.3529229   4.8414421  38.9860057  12.5738138   4.9782269  38.1013621
  11.3365729   2.8531357  34.2555151  11.2165355   3.2988408  35.0940631
  10.6418318   3.2016675  33.6968689   9.0972622  15.6234999  37.9045282
   9.0196651  16.5742824  37.9833763   8.4934265  15.2780872  38.5620208
  17.0350796   3.3252831  35.0835485  17.9468652   3.5580217  34.9083182
  16.5260443   3.9089875  34.5210563  15.6420378   8.3078649  42.4749066
  15.0129240   8.4724363  41.7725134  15.2546040   8.7220259  43.2460030
  19.5209610   9.2433087  39.8293430  18.8360648   9.6231988  39.2790463
  19.6053459   9.8528414  40.5625378  11.1948340   8.0453057  39.7399151
  11.6586685   8.3240760  38.9503774  10.9305138   7.1436502  39.5572242
  10.1317226   4.1676210  36.5488717  10.8341269   4.6197253  37.0162643
   9.7997854   3.5260028  37.1768610  17.8906369   9.7665001  44.6011131
  18.7123813   9.3645189  44.3193813  17.8868772   9.6633236  45.5527247
  25.9812362   6.1103750  40.9496102  25.2276071   5.5411148  40.7940107
  26.1159904   6.0766414  41.8966737  11.3710991  10.9817152  36.6250822
  11.2356665  11.8268688  37.0535670  11.9120803  11.1836430  35.8616756
   4.8240388   8.4992590  37.1978747   5.3364908   9.2935840  37.3484312
   5.4763101   7.8018881  37.1312348   6.6335273  11.6158346  39.2801500
   6.8101901  12.5376311  39.0922484   7.4292106  11.3016766  39.7095880
   7.7566588  13.1336520  45.2811842   8.3074013  13.0053584  44.5088836
   6.9178064  13.4331409  44.9306735  14.6853737   4.4956325  33.6622150
  14.1700360   5.2660930  33.9010538  14.4131045   3.8221461  34.2855212
  19.6588011   7.2488680  35.5975324  18.8817454   6.9099839  35.1530486
  20.3379492   7.2541303  34.9230289  14.4740040   2.3683417  35.4881931
  14.1690176   2.6829566  36.3392075  15.4270482   2.4464837  35.5309264
  12.9186472   8.5273641  37.1374885  12.3907833   7.7926400  36.8248123
  12.4173975   9.3048317  36.8914854  17.8979318   6.7222661  42.2541932
  17.2402992   7.4121922  42.3422060  18.7019717   7.1119093  42.5975918
  16.7084777   5.0767034  40.3045874  17.2216658   5.7097026  40.8067583
  17.3586001   4.4768229  39.9389234  11.0639072   6.3453851  30.1409858
  10.1566134   6.1143104  30.3401007  11.5610104   5.5491470  30.3283840
  13.9707151  15.0551358  33.0606545  13.2968850  15.3583055  33.6691502
  14.3572973  15.8580438  32.7112002  13.9700655   3.9507905  37.6806894
  14.7172474   4.4629302  37.3714016  14.2392245   3.6291958  38.5411288
  12.2427305   6.4466446  34.6633849  11.3338525   6.1625478  34.7606318
  12.2722389   6.8665524  33.8037155  17.4746573  10.0573035  38.4325016
  17.0208900   9.2163945  38.4890207  16.8440540  10.6934434  38.7699796
  16.4179492   0.9865021  39.6625684  15.6802249   0.4742407  39.9935926
  16.6706266   0.5465403  38.8508960  15.9179512  11.8949532  39.3674834
  16.2102486  12.4554589  38.6487200  16.4278133  12.1878093  40.1227993
  10.7912199   4.0595066  40.7643644  10.8460809   3.1068903  40.6886121
   9.9803402   4.2154505  41.2484942  11.9403393   7.9875189  32.0021927
  11.5022823   7.2711048  31.5427565  12.6813834   8.2151304  31.4407019
  10.8813137  12.6729883  40.4568287  10.8389316  12.8990729  39.5276820
  11.7975836  12.4393258  40.6054089  20.0576508   6.2632386  38.0598246
  19.9194407   6.4533982  37.1319435  19.7012727   7.0251769  38.5166297
  20.0845888   8.3308913  43.0709517  20.5182394   8.2384202  43.9192571
  20.7977468   8.3066414  42.4329533   8.9978938   9.5492912  40.2530250
   9.7919537   9.0543232  40.0512825   8.2870630   9.0210775  39.8897956
  13.8173783  11.9311007  44.6042618  13.8710805  12.5001944  45.3720334
  12.9488564  12.1012893  44.2396655  20.9461437   8.3732614  45.6042403
  21.1397327   9.2778425  45.8501678  20.8462055   7.9140033  46.4380988
  11.5750214  10.1221934  43.9328087  11.4361300   9.7540718  44.8054025
  10.7864810  10.6369573  43.7612045  12.1698366  15.2231030  35.2753624
  12.3450122  14.7519074  36.0899247  11.4831154  15.8496797  35.5034885
  13.1255429   9.5003537  41.3216925  12.7905262   9.4604307  42.2174575
  12.6259375   8.8348253  40.8487335  16.0614621   6.8459571  31.5953985
  15.4443791   6.1206399  31.4987037  15.5931109   7.6068931  31.2521059
   6.7359451  18.3720393  42.0493484   6.9756050  19.0038917  42.7272503
   5.8928648  18.0208433  42.3358843  11.2487313  14.1799516  44.4534988
  11.1757485  14.9854487  44.9654293  10.8064706  14.3791481  43.6283009
  11.0377093  13.4171286  37.9637810  10.2544615  13.9592966  38.0576034
  11.7369838  13.9345265  38.3632051  22.2003500   4.9306281  42.2490306
  22.1893377   5.8130996  41.8784240  21.3320880   4.5777831  42.0544843
  13.7085997  14.0786350  46.6093147  14.4213969  14.7133814  46.5369048
  13.2176025  14.1750216  45.7933148  15.4303524   7.9837602  38.1810438
  14.4959802   8.1039065  38.0115143  15.6080192   7.0810069  37.9170448
  18.8176075   3.8254922  38.7160472  19.2836527   4.6582913  38.6420775
  19.2683575   3.3599903  39.4205731  16.8852306  10.1698743  35.7146625
  17.1612150  10.0555337  36.6240499  16.0156805   9.7716228  35.6758798
  13.5206370  14.4185094  39.3579438  13.7028765  13.6006750  39.8207190
  14.3439356  14.6352786  38.9204328  13.8548536  13.3453279  36.6194487
  14.3836302  12.8345733  36.0064649  14.1176755  13.0295809  37.4840020
   7.2104284  14.3968396  39.3792263   6.5414659  14.8814523  38.8956303
   7.0717153  14.6437616  40.2935641  11.3509552  16.4312139  45.9774921
  11.9027860  16.5943761  46.7424006  11.6915746  17.0216577  45.3054946
  14.4877939  14.3794115  42.9638603  14.3629079  13.5783854  42.4549549
  15.1457030  14.8740308  42.4752573  16.5512848  12.1803135  44.5918153
  15.6043183  12.0608486  44.5196480  16.8995621  11.2925633  44.6744415
  13.5559281  11.9755851  40.7922505  13.4084243  11.0472558  40.9730075
  14.3812775  11.9975942  40.3079581  17.1593403  12.7984410  41.8787378
  18.0839950  12.5927271  41.7411829  16.9908706  12.5500811  42.7876720
  16.9488719  13.3170077  37.2349470  17.1225597  12.7516500  36.4823322
  17.4417610  14.1170972  37.0528960  22.8028110   6.0806500  38.8539769
  23.2459256   5.3313825  38.4558893  21.9254621   6.0716636  38.4713501
  17.9363892  12.6336841  34.3346368  18.6314796  13.2543534  34.5533683
  18.2787042  11.7832193  34.6098746  19.8355315  10.0836547  35.8633699
  20.3606639  10.4223820  35.1383019  19.7477667   9.1483562  35.6796833
  11.5195975  16.1508530  40.2228952  11.0800966  15.6584909  40.9161809
  12.2704092  15.6081498  39.9821027   3.9988314  12.3420071  40.2253580
   4.8246334  12.0423843  39.8452223   3.6482366  11.5727694  40.6743369
   8.9669848  11.6946539  42.2951253   8.3449857  11.0317244  41.9953481
   9.6374715  11.7207671  41.6124901   8.5283355  10.2450463  35.7709714
   8.6771475  10.9285927  35.1176387   9.3349798  10.2255553  36.2859170
  22.3460975   7.5511738  41.2462217  23.1807866   7.9901542  41.4099777
  22.4820104   7.0750392  40.4270463   6.2835988   6.2715640  36.7770783
   6.0382029   5.3677970  36.9750993   6.4531902   6.2732791  35.8350261
  12.0278760  12.7398593  33.2421461  11.4552727  13.3588780  32.7891933
  12.6011554  13.2897955  33.7761383  15.2476020  13.0235743  34.3730044
  16.1806693  12.9581305  34.5762919  15.1599233  13.8592010  33.9144576
  17.8764037  12.3401614  31.3333991  17.7977668  12.0061477  32.2269749
  18.6973703  12.8323382  31.3325464  20.5742228   5.2063353  44.5410310
  20.5418548   4.2679354  44.7269994  21.1842851   5.2847390  43.8076135
  12.4125559   4.0759406  30.5837514  13.3584663   3.9465614  30.6525932
  12.0339804   3.3374068  31.0606942  26.3918778   6.2679360  43.6816347
  27.1222166   6.0064648  44.2424050  25.7825723   5.5308082  43.7218415
  24.4734075   4.4087222  44.2790798  23.7467238   4.2743187  43.6707290
  24.0581362   4.7164051  45.0847516  17.5199897  -2.2675156  37.8039601
  16.9398566  -1.6090352  37.4217654  17.2535829  -3.0897811  37.3927019
  16.3024775  -0.1075066  36.8595950  15.4150630   0.1774585  36.6416144
  16.7178764  -0.2681302  36.0123227  19.6539311  -0.0828545  40.5750289
  20.4299701   0.4067908  40.8474906  18.9287445   0.3429510  41.0322158
  22.0911870   0.6299075  41.6324230  22.6856360   0.3894811  40.9217538
  22.1638453  -0.0893795  42.2597766   4.3109025  14.4732686  41.9467394
   4.1763493  13.7133086  41.3805392   3.8941088  15.1973585  41.4796183
  15.4467988   9.6569609  30.9543970  16.1503838   9.8619612  31.5701625
  14.7230637  10.2246371  31.2193053  16.2765799   5.4079470  37.0746240
  16.2201000   5.8648022  36.2353872  16.8294141   4.6470155  36.8969083
  20.0870604   1.1969202  37.8996359  19.8307539   0.7965838  38.7304567
  19.4623473   1.9112996  37.7746498  24.3982942   3.9365275  40.4067651
  23.8382500   4.0058465  41.1799213  23.7926446   3.7606260  39.6867147
   7.4678151  15.3702003  42.1585837   7.3510535  16.3147435  42.0564527
   6.6470597  15.0675564  42.5471636  17.3554686  10.0952138  33.0042430
  18.1900290   9.6633337  32.8219904  17.1939029   9.9234152  33.9319324
  17.0100578   6.5984252  34.3698769  16.9549382   6.4328523  33.4287213
  16.3846633   7.3060284  34.5260959   8.4932665  16.0230264  45.3741765
   9.3959912  16.0553875  45.6908260   8.2670035  15.0930715  45.3888101
  10.2486267  14.7761251  42.0351844   9.2981898  14.7763113  41.9216216
  10.5518753  14.0293986  41.5187879  25.9838961  20.6121789  43.0997606
  26.6217371  20.4928537  42.3960946  25.8659804  21.5602633  43.1585559
  22.7928667  20.5649217  43.0359131  22.4547179  20.4490282  42.1479666
  23.6618435  20.1640383  43.0160137  23.2748450  21.7184069  48.9945337
  23.2637091  21.3236867  48.1225840  23.4369090  20.9850142  49.5879108
  16.1979915  23.9135885  41.8640243  16.9901207  23.5726710  41.4486542
  16.4376565  24.0230861  42.7842396  19.9955711  24.5021181  47.9424521
  19.7045577  25.4066812  47.8271187  20.6312696  24.5437709  48.6568590
  20.9211918  21.8798030  44.5325880  21.5175490  21.6554052  43.8182843
  20.9786890  21.1382775  45.1351328  25.5380229  18.3373243  40.1750814
  26.3243319  17.9192666  39.8241231  25.8018934  19.2419335  40.3432463
  30.9388656  18.2748476  41.0783793  31.6713828  17.7047693  41.3121622
  30.1828012  17.8870077  41.5190299  28.4614077  11.9870051  45.5378402
  28.1297402  12.8565461  45.3139617  27.8659690  11.6706335  46.2172432
  22.1970263  15.7265618  33.2708484  22.3644665  16.5945854  33.6378955
  22.0067432  15.8892899  32.3469773  24.9545596  24.1882597  44.9374314
  24.6546319  25.0907635  44.8290122  24.6096656  23.9214780  45.7895467
  18.4058078  20.6396393  40.9711019  17.4808574  20.5072607  41.1788711
  18.6542491  21.4190613  41.4680961  28.3542740  16.7065137  42.6171752
  27.4459617  16.6380545  42.3230513  28.3030336  17.1837082  43.4453577
  15.7666889  20.2829667  41.8054808  15.8959270  20.5364146  42.7194220
  15.0864340  20.8757375  41.4859463  19.9366376  30.9526917  37.9045282
  19.8590406  31.9034742  37.9833763  19.3328020  30.6072789  38.5620208
  22.4283606  18.1254782  50.5606649  21.6516940  18.6848702  50.5509514
  23.0674169  18.6111565  51.0821519  30.2204386  14.9081575  44.3949626
  29.5778767  15.2014108  43.7489420  29.7159315  14.7934495  45.2002822
  20.6829978  20.9340236  50.1224616  21.4244663  21.4725280  49.8459440
  19.9766964  21.5606524  50.2796168  26.1585318  23.0769376  48.7196777
  26.5668674  22.6351787  47.9751410  25.4362579  22.5022004  48.9730970
  22.5116388  18.0141983  46.0930334  23.3577583  18.4381396  46.2364983
  22.4515026  17.3575607  46.7868897  26.4814132  23.6370567  42.4749066
  25.8522995  23.8016281  41.7725134  26.0939795  24.0512176  43.2460030
  30.3603364  24.5725005  39.8293430  29.6754402  24.9523906  39.2790463
  30.4447214  25.1820331  40.5625378  25.6615833  15.6746351  47.7511508
  25.4176765  16.4288412  47.2145784  25.9375764  16.0531699  48.5858755
  27.6154296  22.2184964  46.4288774  27.8271191  22.8616724  45.7523155
  27.5684044  21.3847280  45.9610704  25.2180525  14.8302784  43.3325346
  24.3565004  15.1284038  43.6242083  25.2442960  15.0473183  42.4006378
  18.9266175  22.9216456  42.6778915  19.4967532  23.3503725  42.0396399
  19.5174287  22.6399041  43.3763100  19.4191342  18.0879884  50.9239926
  18.7890002  18.7696165  51.1575323  19.3127430  17.9762965  49.9793064
  14.7136314  17.7551680  41.8505850  13.9235368  18.0109208  41.3745961
  15.2047562  18.5700018  41.9557891  28.7300124  25.0956919  44.6011131
  29.5517568  24.6937106  44.3193813  28.7262527  24.9925153  45.5527247
  16.6651060  18.1196259  38.8089327  15.8682223  18.2314953  39.3272822
  16.4376652  18.4582911  37.9430217  22.4956727  24.6440962  46.7571841
  22.5601160  25.1061370  47.5930013  21.7867651  24.0138327  46.8854151
  12.9974017  18.0082170  44.2820841  13.2482056  18.8929180  44.5478417
  13.5333566  17.8286772  43.5095933  36.8206117  21.4395668  40.9496102
  36.0669825  20.8703066  40.7940107  36.9553658  21.4058332  41.8966737
  21.6140046  13.8058529  50.8785434  22.3549759  14.4065682  50.7989896
  21.8457968  13.0636167  50.3203476  16.7581384  18.9914896  49.1563663
  16.6434899  18.0900153  49.4570762  15.9025901  19.2378593  48.8048480
  23.8373221  26.9332636  50.7551164  23.3937076  26.1469015  50.4372068
  24.4990435  27.1211787  50.0895055  18.5960343  28.4628438  45.2811842
  19.1467768  28.3345501  44.5088836  17.7571818  28.7623327  44.9306735
  25.9354459  27.2135436  48.7832565  25.9172935  28.0344317  48.2912834
  26.8574379  27.0889511  49.0082706  22.3927514  24.7279566  49.6256073
  22.9255850  23.9667854  49.3955381  21.8641595  24.4353218  50.3680228
  25.5597209   9.8339632  45.1549715  25.2161478  10.7241273  45.0788826
  25.9276171   9.6441289  44.2919300  13.6283059  22.1573162  37.9738317
  14.4658281  22.5670171  37.7572025  13.8061327  21.2172604  37.9438511
  23.1094602  14.6697944  38.7207389  22.2536199  14.2804794  38.5413027
  23.5221554  14.7489904  37.8607174  24.6393749  12.2044287  43.1198948
  24.1358545  12.1674422  42.3066754  24.9324356  13.1137030  43.1795605
  20.8836635  12.2883017  42.1265130  21.7489632  12.0925825  41.7671020
  20.9514144  12.0593368  43.0534487  28.7373072  22.0514579  42.2541932
  28.0796747  22.7413840  42.3422060  29.5413472  22.4411011  42.5975918
  18.4898954  14.5185225  39.4981497  19.0642706  14.2960406  38.7654690
  19.0769936  14.5873919  40.2510098  27.5478531  20.4058951  40.3045874
  28.0610413  21.0388943  40.8067583  28.1979755  19.8060147  39.9389234
  18.8168541  16.5489686  33.5177382  17.9805853  16.8864372  33.8386657
  18.6773311  16.4138665  32.5804519  20.7921622  11.3926473  38.2256566
  20.1386034  11.0775491  37.6013181  20.7502096  10.7702214  38.9516389
  24.0259362  17.8808407  42.5504214  23.1081923  18.1023354  42.3925902
  24.4419506  17.9554717  41.6915921  27.2573247  16.3156939  39.6625684
  26.5196004  15.8034325  39.9935926  27.5100020  15.8757320  38.8508960
  26.7573267  27.2241450  39.3674834  27.0496241  27.7846507  38.6487200
  27.2671887  27.5170011  40.1227993  27.3584874   9.0933191  40.2567453
  27.6643751   8.2330554  39.9693368  28.0837479   9.6850811  40.0566447
  13.6509230  19.4963877  38.6449051  13.4533630  18.9033238  37.9200117
  13.0955894  19.1916088  39.3624990  21.6305954  19.3886984  40.7643644
  21.6854564  18.4360820  40.6886121  20.8197156  19.5446423  41.2484942
  19.5698314  18.0064044  38.5234023  18.7566179  18.3058214  38.9299215
  20.0657308  17.6119732  39.2408505  25.1672526  18.4705868  47.3548917
  25.5221913  18.6977341  48.2143382  25.8144657  18.8024245  46.7326172
  30.8970263  21.5924304  38.0598246  30.7588161  21.7825900  37.1319435
  30.5406481  22.3543687  38.5166297  19.0612389  15.5782399  44.1395258
  19.7011768  15.4371158  43.4418221  18.2289919  15.2916913  43.7633860
  30.9239642  23.6600831  43.0709517  31.3576149  23.5676120  43.9192571
  31.6371223  23.6358332  42.4329533  24.6567537  27.2602925  44.6042618
  24.7104559  27.8293861  45.3720334  23.7882318  27.4304810  44.2396655
  16.1455456  19.0227911  36.3290003  15.2153044  18.9612367  36.5459965
  16.2412928  18.5003864  35.5326644  16.0641005  15.5482724  38.9168245
  16.3247822  16.4628057  38.8077405  16.8858177  15.0807167  39.0664857
  17.5365930  16.9620481  46.0867069  18.2088984  16.7537844  45.4379718
  16.7095717  16.7642567  45.6472301  31.7855192  23.7024532  45.6042403
  31.9791082  24.6070342  45.8501678  31.6855810  23.2431951  46.4380988
  23.4391502  13.5882422  48.1032730  22.7919417  14.2872372  48.0097206
  24.2092518  14.0218566  48.4708978  26.8470300  23.8531274  51.1783283
  26.6955807  23.6241826  50.2613367  26.8374980  24.8101876  51.1914628
  23.6155637  21.4263187  46.1629550  24.5447697  21.5774347  45.9898517
  23.1946667  21.5147208  45.3078196  22.4143969  25.4513852  43.9328087
  22.2755054  25.0832636  44.8054025  21.6258565  25.9661491  43.7612045
  23.9649184  24.8295454  41.3216925  23.6299016  24.7896224  42.2174575
  23.4653129  24.1640170  40.8487335  17.9393428  20.2363084  46.8469506
  17.8013226  19.5043323  47.4481045  18.8498351  20.1471984  46.5653694
  28.5562507  26.8850397  49.2559765  28.4975053  26.2009617  48.5890348
  28.9582025  27.6269387  48.8040391  19.2804662  16.9348262  48.1548825
  18.7442019  16.4839000  48.8070422  18.6921371  17.0694170  47.4119290
  17.5753206  33.7012311  42.0493484  17.8149804  34.3330835  42.7272503
  16.7322402  33.3500351  42.3358843  18.6906921  16.3936913  30.7175289
  17.8136388  16.2725714  30.3537536  19.1664674  15.6022991  30.4654178
  28.5579914  24.8489981  47.4873745  27.6706693  24.5115903  47.6100144
  29.1278465  24.1173012  47.7242510  10.2109061  21.1814073  40.8116796
  10.8980101  20.8675803  40.2237811  10.0557190  22.0855437  40.5384048
  15.0143784  16.0704269  45.2401820  14.9301972  15.4629939  44.5052230
  14.1926490  16.5613288  45.2411316  22.0881068  29.5091433  44.4534988
  22.0151239  30.3146405  44.9654293  21.6458461  29.7083399  43.6283009
  25.1867497  14.5557833  40.6072015  25.6836197  13.8027795  40.2873085
  24.4154479  14.5922149  40.0415224  33.0397255  20.2598198  42.2490306
  33.0287131  21.1422914  41.8784240  32.1714634  19.9069749  42.0544843
  24.5479751  29.4078267  46.6093147  25.2607723  30.0425732  46.5369048
  24.0569780  29.5042133  45.7933148  21.7702466  16.6975216  40.3343700
  21.4000254  16.1446256  41.0224605  22.2661559  16.0933349  39.7818700
  29.6569829  19.1546839  38.7160472  30.1230282  19.9874831  38.6420775
  30.1077330  18.6891821  39.4205731  19.5991665  27.1572711  47.4298717
  20.3001124  27.7909194  47.5828112  19.1286780  27.4987442  46.6694357
  27.6286492  11.5227426  42.7551374  26.7149572  11.7531653  42.9233581
  28.0579594  11.6065870  43.6065406  27.3992951  19.7117318  45.2551268
  26.7464401  19.9593226  44.6003721  27.7773331  18.8981456  44.9213745
  24.3600125  29.7477011  39.3579438  24.5422519  28.9298667  39.8207190
  25.1833111  29.9644704  38.9204328  23.4480524  20.4537129  51.7417305
  22.7721161  20.3531259  52.4119680  24.2708158  20.2976343  52.2053302
  15.1959383  26.6909066  44.3629820  15.7812820  25.9452754  44.4957724
  14.9984221  27.0013023  45.2466484  18.0498038  29.7260313  39.3792263
  17.3808413  30.2106441  38.8956303  17.9110908  29.9729534  40.2935641
   9.7877038  19.2614666  43.0834263   9.8261137  18.7278257  43.8771381
   9.2817330  18.7349872  42.4645240  22.1903307  31.7604057  45.9774921
  22.7421615  31.9235678  46.7424006  22.5309500  32.3508495  45.3054946
  17.1667800  14.1079207  46.5796806  17.2309126  14.9694037  46.1674203
  17.1034920  13.4953208  45.8469164  27.0414181  26.5865314  51.8323575
  27.5854085  27.1995273  51.3378530  26.4601026  27.1444893  52.3490588
  13.4185615  17.9878768  36.1588195  13.7139056  17.0789447  36.1055248
  12.5173651  17.9666508  35.8369197  25.3271694  29.7086032  42.9638603
  25.2022833  28.9075772  42.4549549  25.9850785  30.2032226  42.4752573
  16.9479862  16.0634765  42.1415743  16.2266448  16.6770732  42.0023217
  17.7373118  16.5992530  42.0632389  27.3906602  27.5095052  44.5918153
  26.4436938  27.3900404  44.5196480  27.7389375  26.6217550  44.6744415
  19.7506176  13.3989191  48.4156395  20.2740577  13.6451488  49.1782704
  19.5318509  14.2309226  47.9959532  15.1473457  15.6692866  36.2827520
  14.8186163  14.7890245  36.1002626  15.5012827  15.6140535  37.1703909
  24.3953036  27.3047769  40.7922505  24.2477998  26.3764476  40.9730075
  25.2206529  27.3267859  40.3079581  18.2615280  15.9565836  36.6502998
  18.6011352  16.4851757  35.9281606  18.7087400  16.2946242  37.4261564
  27.9987157  28.1276327  41.8787378  28.9233705  27.9219189  41.7411829
  27.8302461  27.8792728  42.7876720  20.9558721  14.3402886  46.1006066
  20.6155541  13.5410699  46.5026745  20.2497727  14.6404597  45.5282899
  21.6075192  11.4252199  44.5533389  22.4301262  10.9512677  44.4312279
  21.8513256  12.2042683  45.0532075  20.2483427  14.4540457  34.8496290
  20.9691789  14.8321710  34.3460007  19.6248731  15.1729334  34.9531268
  24.3914550  15.1585606  35.7854623  24.6078164  16.0410244  35.4843451
  23.9108617  14.7671820  35.0560265  19.1313771  18.1171319  42.3625367
  18.9858352  18.4311623  43.2549649  18.6538975  18.7356220  41.8096266
  20.9910154  15.1073867  42.4106257  20.9771723  14.2114961  42.0738555
  21.7082582  15.1144531  43.0444543  22.8436285  15.5411208  44.4559384
  22.5854063  16.4628278  44.4543715  22.3121325  15.1441642  45.1459848
  27.7882474  28.6461995  37.2349470  27.9619351  28.0808417  36.4823322
  28.2811365  29.4462890  37.0528960  13.6059433  20.6576664  45.3013028
  13.0612901  21.4336472  45.4333303  14.4838783  21.0047468  45.1432150
  20.3947050  13.9888248  37.6793827  20.5162961  13.0604894  37.8784714
  20.1049092  14.0026934  36.7672142  23.2638240  11.6743158  40.8160547
  23.2859937  11.7382491  39.8612526  23.6806299  10.8347667  41.0101053
  33.6421865  21.4098418  38.8539769  34.0853011  20.6605743  38.4558893
  32.7648375  21.4008554  38.4713501  14.3925455  19.7846560  48.1943185
  13.6507191  19.9329195  48.7807816  14.0718200  20.0454826  47.3309935
  22.3369118  29.3262538  47.9923575  22.6456244  29.0811685  48.8646275
  23.1344600  29.5309177  47.5042445  22.3589730  31.4800448  40.2228952
  21.9194720  30.9876827  40.9161809  23.1097847  30.9373416  39.9821027
  14.8382069  27.6711989  40.2253580  15.6640089  27.3715761  39.8452223
  14.4876121  26.9019611  40.6743369  19.8063602  27.0238457  42.2951253
  19.1843611  26.3609162  41.9953481  20.4768469  27.0499589  41.6124901
  13.0390674  25.5898315  41.1842513  12.2022582  25.1620490  41.0026515
  13.0114319  25.7830759  42.1213305  30.3642975  26.0461368  51.1684897
  29.5738519  26.0285507  50.6289396  30.1276330  26.5849662  51.9233933
  30.4840850  22.8953835  48.4817625  30.5338855  22.7303842  49.4233148
  30.3754774  22.0281094  48.0915506  27.7744613  18.8784763  49.7976932
  28.6754475  18.7391228  49.5060930  27.8492587  19.0439218  50.7375109
  22.1087418  16.2551617  48.6430118  21.2390727  16.5485184  48.3712707
  22.3446898  16.8392062  49.3637382  31.9859047  25.3150776  48.7259647
  31.6943855  25.6780757  49.5623108  31.3731178  24.6017785  48.5472979
  33.1854729  22.8803656  41.2462217  34.0201621  23.3193460  41.4099777
  33.3213858  22.4042309  40.4270463  30.2346235  20.4383391  47.1939705
  30.7100357  20.6311037  46.3858556  29.3111801  20.4942577  46.9483088
  24.8126452  12.4731234  46.1595539  25.3308396  13.2092261  45.8342027
  24.4581585  12.7795228  46.9942298  16.3925390  17.3335916  34.2756944
  15.6994634  17.4080271  33.6196980  16.1477141  16.5696259  34.7978461
  25.0639046   8.8931517  41.6796435  25.3440800   8.2254706  42.3056862
  25.8489653   9.0860613  41.1671099  28.9347904  17.3149151  45.4268010
  29.8865327  17.4147249  45.4480234  28.7651355  16.5227419  45.9366095
  26.9562284  14.4004734  45.6127411  26.3612216  14.6809747  44.9173900
  26.6711981  14.8898635  46.3844152  31.4135982  20.5355271  44.5410310
  31.3812302  19.5971271  44.7269994  32.0236606  20.6139307  43.8076135
  31.5630471  17.3266314  44.5868593  31.0469519  16.5424771  44.3998522
  32.4470419  16.9985031  44.7515113  29.2241198  11.0707330  40.5464406
  29.0266019  10.7622418  41.4307738  29.8340903  11.7968969  40.6762336
  37.2312532  21.5971277  43.6816347  37.9615921  21.3356566  44.2424050
  36.6219478  20.8599999  43.7218415  35.3127829  19.7379140  44.2790798
  34.5860993  19.6035105  43.6707290  34.8975116  20.0455969  45.0847516
  23.1358006  23.4569070  52.0438171  24.0561015  23.6347669  52.2378217
  23.1007589  22.5125115  51.8917870  21.4362230  17.3301300  30.5192399
  20.5293686  17.0334413  30.5955113  21.7138211  17.0331118  29.6526685
  12.3540171  18.6507663  40.9691446  12.0342955  17.7972972  40.6765820
  11.8073599  18.8656242  41.7249413  16.1320078  21.3670104  44.6860952
  16.3506088  22.2987212  44.7048986  16.5445852  21.0078079  45.4715756
  23.0524296  11.8738190  36.6736640  22.2425024  11.5285275  37.0491887
  23.7408713  11.5645733  37.2624252  24.9814844  10.9516237  38.2960937
  25.5345883  11.3711690  38.9550960  25.2184931  10.0251985  38.3383893
  20.2061015  14.1888235  30.6604378  21.0680179  14.5143134  30.9200196
  20.3911359  13.4019731  30.1477444  12.2228431  22.2710575  42.9384567
  11.5291902  21.8564528  42.4254522  12.9701422  22.3131111  42.3417986
  28.3593651  13.0616762  37.8039601  27.7792320  13.7201566  37.4217654
  28.0929584  12.2394106  37.3927019  26.8097218  12.4621819  40.0060922
  27.3096996  12.5738354  39.1975241  27.4532826  12.1582872  40.6461730
  20.8679213  20.3700449  52.8928763  20.3846295  21.1700809  53.0992652
  20.9540153  20.3808394  51.9396207  14.1365173  22.2028829  40.8150582
  14.1135861  22.3016516  39.8632465  14.4465810  23.0493979  41.1367748
  16.7952551  24.2604984  44.9297196  17.7495805  24.2288926  44.8627128
  16.5965075  23.7995607  45.7447422  17.3851933  22.8306100  47.4967994
  18.2044822  23.3250178  47.5202831  17.6588741  21.9138068  47.4685562
  27.1418529  15.2216852  36.8595950  26.2544384  15.5066503  36.6416144
  27.5572518  15.0610615  36.0123227  30.4933065  15.2463373  40.5750289
  31.2693456  15.7359825  40.8474906  29.7681200  15.6721427  41.0322158
  32.9305624  15.9590992  41.6324230  33.5250115  15.7186728  40.9217538
  33.0032208  15.2398123  42.2597766  15.1502780  29.8024603  41.9467394
  15.0157248  29.0425004  41.3805392  14.7334842  30.5265503  41.4796183
  30.9264359  16.5261120  37.8996359  30.6701293  16.1257756  38.7304567
  30.3017227  17.2404914  37.7746498  35.2376697  19.2657193  40.4067651
  34.6776255  19.3350382  41.1799213  34.6320200  19.0898178  39.6867147
  18.3071906  30.6993920  42.1585837  18.1904290  31.6439353  42.0564527
  17.4864352  30.3967482  42.5471636  12.6386847  17.1644234  48.1960191
  13.2845711  16.6543188  48.6847416  12.4303998  17.9012915  48.7703616
  25.1640240  24.2325081  53.6952332  26.0331399  24.4065733  53.3338967
  24.6846991  25.0519498  53.5728061  21.1590458  11.4284278  33.9484087
  21.1469128  12.3726118  34.1052358  22.0513880  11.2454424  33.6543549
  19.3326420  31.3522182  45.3741765  20.2353666  31.3845792  45.6908260
  19.1063790  30.4222633  45.3888101  21.0880022  30.1053169  42.0351844
  20.1375653  30.1055030  41.9216216  21.3912508  29.3585903  41.5187879
  24.9742577   8.0227055  38.2030024  24.2074973   7.4685542  38.3486707
  25.3853282   8.0948924  39.0644176  36.8232715  35.9413707  43.0997606
  37.4611125  35.8220454  42.3960946  36.7053558  36.8894551  43.1585559
  33.6322422  35.8941135  43.0359131  33.2940933  35.7782200  42.1479666
  34.5012190  35.4932300  43.0160137  29.4909237  37.7476612  39.0256022
  28.9274102  37.6566548  38.2572310  29.3761632  36.9276516  39.5058515
  34.1142205  37.0475987  48.9945337  34.1030845  36.6528785  48.1225840
  34.2762844  36.3142059  49.5879108  27.0373669  39.2427803  41.8640243
  27.8294961  38.9018628  41.4486542  27.2770319  39.3522778  42.7842396
  35.0708796  41.4147579  34.3370487  34.4196776  42.0001660  33.9504501
  35.8653159  41.9453774  34.3965524  30.8349466  39.8313099  47.9424521
  30.5439332  40.7358730  47.8271187  31.4706450  39.8729626  48.6568590
  31.7605673  37.2089947  44.5325880  32.3569245  36.9845970  43.8182843
  31.8180644  36.4674693  45.1351328  36.3773984  33.6665161  40.1750814
  37.1637073  33.2484584  39.8241231  36.6412688  34.5711253  40.3432463
  41.7782411  33.6040394  41.0783793  42.5107583  33.0339611  41.3121622
  41.0221767  33.2161995  41.5190299  33.3958531  36.0267636  38.2747135
  33.0316738  35.4998257  38.9860057  34.2525647  35.6366105  38.1013621
  39.3007831  27.3161968  45.5378402  38.9691156  28.1857379  45.3139617
  38.7053445  26.9998252  46.2172432  35.7939351  39.5174514  44.9374314
  35.4940074  40.4199553  44.8290122  35.4490410  39.2506697  45.7895467
  29.2451832  35.9688311  40.9711019  28.3202329  35.8364525  41.1788711
  29.4936245  36.7482530  41.4680961  39.1936495  32.0357054  42.6171752
  38.2853372  31.9672463  42.3230513  39.1424090  32.5128999  43.4453577
  26.6060643  35.6121585  41.8054808  26.7353024  35.8656064  42.7194220
  25.9258095  36.2049293  41.4859463  30.7760131  46.2818835  37.9045282
  30.6984160  47.2326660  37.9833763  30.1721774  45.9364707  38.5620208
  33.2677360  33.4546700  50.5606649  32.4910694  34.0140620  50.5509514
  33.9067923  33.9403483  51.0821519  41.0598141  30.2373493  44.3949626
  40.4172521  30.5306026  43.7489420  40.5553069  30.1226413  45.2002822
  31.5223733  36.2632153  50.1224616  32.2638417  36.8017197  49.8459440
  30.8160718  36.8898442  50.2796168  36.9979072  38.4061294  48.7196777
  37.4062428  37.9643704  47.9751410  36.2756334  37.8313921  48.9730970
  33.3510142  33.3433901  46.0930334  34.1971338  33.7673314  46.2364983
  33.2908780  32.6867525  46.7868897  37.3207887  38.9662484  42.4749066
  36.6916749  39.1308199  41.7725134  36.9333549  39.3804094  43.2460030
  41.1997119  39.9016922  39.8293430  40.5148157  40.2815824  39.2790463
  41.2840968  40.5112249  40.5625378  36.5009588  31.0038269  47.7511508
  36.2570520  31.7580329  47.2145784  36.7769518  31.3823617  48.5858755
  38.4548050  37.5476881  46.4288774  38.6664946  38.1908641  45.7523155
  38.4077799  36.7139198  45.9610704  36.0574279  30.1594702  43.3325346
  35.1958758  30.4575956  43.6242083  36.0836714  30.3765101  42.4006378
  32.8735849  38.7036893  39.7399151  33.3374194  38.9824595  38.9503774
  32.6092647  37.8020337  39.5572242  29.7659930  38.2508374  42.6778915
  30.3361287  38.6795642  42.0396399  30.3568042  37.9690959  43.3763100
  30.2585096  33.4171801  50.9239926  29.6283757  34.0988082  51.1575323
  30.1521184  33.3054883  49.9793064  25.5530069  33.0843598  41.8505850
  24.7629123  33.3401126  41.3745961  26.0441316  33.8991935  41.9557891
  39.5693878  40.4248837  44.6011131  40.3911322  40.0229024  44.3193813
  39.5656281  40.3217071  45.5527247  33.3350482  39.9732880  46.7571841
  33.3994914  40.4353287  47.5930013  32.6261406  39.3430245  46.8854151
  23.8367772  33.3374088  44.2820841  24.0875810  34.2221098  44.5478417
  24.3727320  33.1578690  43.5095933  47.6599871  36.7687585  40.9496102
  46.9063580  36.1994983  40.7940107  47.7947413  36.7350250  41.8966737
  33.0498499  41.6400987  36.6250822  32.9144174  42.4852523  37.0535670
  33.5908312  41.8420265  35.8616756  29.5365839  27.7192567  53.2865177
  29.1432785  27.1658766  53.9612821  30.3531979  28.0303146  53.6771694
  26.5027897  39.1576426  37.1978747  27.0152417  39.9519676  37.3484312
  27.1550610  38.4602716  37.1312348  28.3122782  42.2742182  39.2801500
  28.4889410  43.1960147  39.0922484  29.1079615  41.9600601  39.7095880
  32.4533800  29.1350446  50.8785434  33.1943513  29.7357600  50.7989896
  32.6851723  28.3928084  50.3203476  27.5975138  34.3206814  49.1563663
  27.4828653  33.4192071  49.4570762  26.7419656  34.5670510  48.8048480
  34.6766976  42.2624554  50.7551164  34.2330830  41.4760933  50.4372068
  35.3384189  42.4503705  50.0895055  29.4354097  43.7920356  45.2811842
  29.9861522  43.6637419  44.5088836  28.5965573  44.0915245  44.9306735
  36.7748214  42.5427354  48.7832565  36.7566689  43.3636235  48.2912834
  37.6968134  42.4181429  49.0082706  33.2321268  40.0571483  49.6256073
  33.7649605  39.2959772  49.3955381  32.7035349  39.7645135  50.3680228
  36.3990963  25.1631549  45.1549715  36.0555232  26.0533191  45.0788826
  36.7669926  24.9733207  44.2919300  24.4676814  37.4865080  37.9738317
  25.3052036  37.8962088  37.7572025  24.6455081  36.5464522  37.9438511
  33.9488357  29.9989861  38.7207389  33.0929953  29.6096712  38.5413027
  34.3615309  30.0781822  37.8607174  35.4787503  27.5336205  43.1198948
  34.9752299  27.4966340  42.3066754  35.7718110  28.4428947  43.1795605
  31.7230389  27.6174934  42.1265130  32.5883386  27.4217743  41.7671020
  31.7907898  27.3885286  43.0534487  41.3375520  37.9072515  35.5975324
  40.5604963  37.5683675  35.1530486  42.0167001  37.9125138  34.9230289
  34.5973981  39.1857476  37.1374885  34.0695342  38.4510235  36.8248123
  34.0961484  39.9632152  36.8914854  39.5766827  37.3806496  42.2541932
  38.9190501  38.0705758  42.3422060  40.3807226  37.7702928  42.5975918
  29.3292708  29.8477142  39.4981497  29.9036460  29.6252324  38.7654690
  29.9163691  29.9165837  40.2510098  38.3872286  35.7350869  40.3045874
  38.9004167  36.3680861  40.8067583  39.0373510  35.1352065  39.9389234
  31.6315376  26.7218391  38.2256566  30.9779788  26.4067408  37.6013181
  31.5895850  26.0994132  38.9516389  35.6494660  45.7135193  33.0606545
  34.9756359  46.0166890  33.6691502  36.0360482  46.5164274  32.7112002
  34.8653116  33.2100325  42.5504214  33.9475678  33.4315272  42.3925902
  35.2813260  33.2846635  41.6915921  35.6488164  34.6091740  37.6806894
  36.3959983  35.1213138  37.3714016  35.9179754  34.2875793  38.5411288
  39.1534082  40.7156871  38.4325016  38.6996409  39.8747780  38.4890207
  38.5228049  41.3518269  38.7699796  38.0967001  31.6448857  39.6625684
  37.3589758  31.1326243  39.9935926  38.3493775  31.2049238  38.8508960
  37.5967021  42.5533367  39.3674834  37.8889995  43.1138424  38.6487200
  38.1065642  42.8461928  40.1227993  38.1978629  24.4225109  40.2567453
  38.5037506  23.5622472  39.9693368  38.9231234  25.0142729  40.0566447
  32.4699708  34.7178902  40.7643644  32.5248318  33.7652738  40.6886121
  31.6590910  34.8738341  41.2484942  30.4092068  33.3355961  38.5234023
  29.5959934  33.6350132  38.9299215  30.9051063  32.9411650  39.2408505
  32.5600646  43.3313718  40.4568287  32.5176825  43.5574565  39.5276820
  33.4763345  43.0977093  40.6054089  36.0066280  33.7997786  47.3548917
  36.3615668  34.0269259  48.2143382  36.6538411  34.1316163  46.7326172
  41.7364017  36.9216222  38.0598246  41.5981916  37.1117818  37.1319435
  41.3800236  37.6835605  38.5166297  29.9006143  30.9074317  44.1395258
  30.5405522  30.7663076  43.4418221  29.0683674  30.6208830  43.7633860
  41.7633397  38.9892749  43.0709517  42.1969903  38.8968038  43.9192571
  42.4764977  38.9650249  42.4329533  30.6766447  40.2076747  40.2530250
  31.4707046  39.7127067  40.0512825  29.9658139  39.6794610  39.8897956
  35.4961292  42.5894843  44.6042618  35.5498314  43.1585779  45.3720334
  34.6276073  42.7596728  44.2396655  26.9034760  30.8774642  38.9168245
  27.1641577  31.7919975  38.8077405  27.7251932  30.4099084  39.0664857
  28.3759685  32.2912399  46.0867069  29.0482738  32.0829761  45.4379718
  27.5489471  32.0934485  45.6472301  42.6248946  39.0316449  45.6042403
  42.8184836  39.9362260  45.8501678  42.5249564  38.5723868  46.4380988
  34.2785257  28.9174340  48.1032730  33.6313172  29.6164290  48.0097206
  35.0486272  29.3510484  48.4708978  37.6864055  39.1823192  51.1783283
  37.5349561  38.9533744  50.2613367  37.6768734  40.1393794  51.1914628
  34.4549391  36.7555105  46.1629550  35.3841451  36.9066264  45.9898517
  34.0340421  36.8439126  45.3078196  33.2537723  40.7805769  43.9328087
  33.1148809  40.4124554  44.8054025  32.4652319  41.2953409  43.7612045
  33.8485875  45.8814866  35.2753624  34.0237631  45.4102909  36.0899247
  33.1618663  46.5080632  35.5034885  34.8042938  40.1587372  41.3216925
  34.4692771  40.1188142  42.2174575  34.3046884  39.4932088  40.8487335
  28.7787182  35.5655002  46.8469506  28.6406980  34.8335241  47.4481045
  29.6892106  35.4763902  46.5653694  31.4069483  35.2774961  46.3353186
  32.1169101  34.6368154  46.2939804  31.3638791  35.5287856  47.2579367
  39.3956261  42.2142315  49.2559765  39.3368808  41.5301535  48.5890348
  39.7975780  42.9561305  48.8040391  30.1198417  32.2640179  48.1548825
  29.5835774  31.8130918  48.8070422  29.5315125  32.3986088  47.4119290
  28.4146960  49.0304229  42.0493484  28.6543559  49.6622753  42.7272503
  27.5716157  48.6792269  42.3358843  39.3973669  40.1781899  47.4873745
  38.5100448  39.8407820  47.6100144  39.9672220  39.4464930  47.7242510
  21.0502816  36.5105990  40.8116796  21.7373856  36.1967720  40.2237811
  20.8950945  37.4147355  40.5384048  25.8537538  31.3996187  45.2401820
  25.7695727  30.7921856  44.5052230  25.0320244  31.8905205  45.2411316
  32.9274822  44.8383351  44.4534988  32.8544994  45.6438322  44.9654293
  32.4852215  45.0375317  43.6283009  32.7164602  44.0755121  37.9637810
  31.9332124  44.6176801  38.0576034  33.4157347  44.5929101  38.3632051
  36.0261252  29.8849750  40.6072015  36.5229951  29.1319713  40.2873085
  35.2548233  29.9214067  40.0415224  43.8791009  35.5890116  42.2490306
  43.8680886  36.4714831  41.8784240  43.0108389  35.2361667  42.0544843
  35.3873506  44.7370185  46.6093147  36.1001478  45.3717650  46.5369048
  34.8963534  44.8334051  45.7933148  37.1091033  38.6421438  38.1810438
  36.1747311  38.7622900  38.0115143  37.2867701  37.7393904  37.9170448
  32.6096221  32.0267133  40.3343700  32.2394008  31.4738174  41.0224605
  33.1055313  31.4225267  39.7818700  40.4963584  34.4838757  38.7160472
  40.9624036  35.3166749  38.6420775  40.9471084  34.0183739  39.4205731
  30.4385419  42.4864628  47.4298717  31.1394879  43.1201111  47.5828112
  29.9680534  42.8279360  46.6694357  38.5639815  40.8282578  35.7146625
  38.8399659  40.7139173  36.6240499  37.6944314  40.4300063  35.6758798
  38.4680247  26.8519344  42.7551374  37.5543326  27.0823571  42.9233581
  38.8973348  26.9357788  43.6065406  38.2386705  35.0409236  45.2551268
  37.5858155  35.2885143  44.6003721  38.6167085  34.2273374  44.9213745
  35.1993879  45.0768929  39.3579438  35.3816274  44.2590585  39.8207190
  36.0226865  45.2936621  38.9204328  35.5336045  44.0037114  36.6194487
  36.0623811  43.4929569  36.0064649  35.7964264  43.6879644  37.4840020
  34.2874278  35.7829047  51.7417305  33.6114915  35.6823176  52.4119680
  35.1101912  35.6268261  52.2053302  26.0353137  42.0200984  44.3629820
  26.6206574  41.2744671  44.4957724  25.8377976  42.3304940  45.2466484
  28.8891792  45.0552231  39.3792263  28.2202168  45.5398359  38.8956303
  28.7504662  45.3021451  40.2935641  20.6270792  34.5906584  43.0834263
  20.6654892  34.0570174  43.8771381  20.1211085  34.0641789  42.4645240
  33.0297061  47.0895974  45.9774921  33.5815369  47.2527596  46.7424006
  33.3703255  47.6800412  45.3054946  28.0061554  29.4371124  46.5796806
  28.0702881  30.2985955  46.1674203  27.9428675  28.8245126  45.8469164
  27.4813827  31.5094257  50.2269840  28.1085866  31.1271334  50.8407364
  26.6241746  31.2908459  50.5925532  36.1665448  45.0377950  42.9638603
  36.0416588  44.2367690  42.4549549  36.8244539  45.5324143  42.4752573
  27.7873617  31.3926682  42.1415743  27.0660202  32.0062650  42.0023217
  28.5766872  31.9284447  42.0632389  38.2300357  42.8386970  44.5918153
  37.2830692  42.7192321  44.5196480  38.5783130  41.9509468  44.6744415
  30.5899930  28.7281109  48.4156395  31.1134332  28.9743406  49.1782704
  30.3712263  29.5601144  47.9959532  38.8380912  43.4568245  41.8787378
  39.7627459  43.2511106  41.7411829  38.6696215  43.2084646  42.7876720
  31.7952475  29.6694804  46.1006066  31.4549296  28.8702617  46.5026745
  31.0891481  29.9696515  45.5282899  32.4468947  26.7544116  44.5533389
  33.2695016  26.2804595  44.4312279  32.6907011  27.5334600  45.0532075
  35.2308304  30.4877524  35.7854623  35.4471919  31.3702162  35.4843451
  34.7502371  30.0963737  35.0560265  29.9707526  33.4463237  42.3625367
  29.8252106  33.7603540  43.2549649  29.4932729  34.0648137  41.8096266
  31.8303909  30.4365785  42.4106257  31.8165477  29.5406878  42.0738555
  32.5476337  30.4436449  43.0444543  33.6830039  30.8703125  44.4559384
  33.4247817  31.7920196  44.4543715  33.1515080  30.4733560  45.1459848
  38.6276228  43.9753912  37.2349470  38.8013106  43.4100335  36.4823322
  39.1205119  44.7754807  37.0528960  24.4453188  35.9868582  45.3013028
  23.9006656  36.7628389  45.4333303  25.3232538  36.3339386  45.1432150
  31.2340805  29.3180165  37.6793827  31.3556716  28.3896812  37.8784714
  30.9442847  29.3318851  36.7672142  34.1031995  27.0035076  40.8160547
  34.1253692  27.0674409  39.8612526  34.5200054  26.1639584  41.0101053
  44.4815619  36.7390335  38.8539769  44.9246765  35.9897661  38.4558893
  43.6042130  36.7300472  38.4713501  39.6151401  43.2920677  34.3346368
  40.3102305  43.9127370  34.5533683  39.9574551  42.4416028  34.6098746
  25.2319210  35.1138478  48.1943185  24.4900946  35.2621113  48.7807816
  24.9111954  35.3746743  47.3309935  41.5142824  40.7420382  35.8633699
  42.0394148  41.0807655  35.1383019  41.4265176  39.8067398  35.6796833
  33.1762872  44.6554456  47.9923575  33.4849999  44.4103603  48.8646275
  33.9738354  44.8601094  47.5042445  33.1983484  46.8092366  40.2228952
  32.7588475  46.3168744  40.9161809  33.9491601  46.2665333  39.9821027
  25.6775823  43.0003907  40.2253580  26.5033843  42.7007678  39.8452223
  25.3269875  42.2311529  40.6743369  30.6457357  42.3530375  42.2951253
  30.0237366  41.6901080  41.9953481  31.3162223  42.3791507  41.6124901
  23.8784428  40.9190233  41.1842513  23.0416337  40.4912407  41.0026515
  23.8508074  41.1122676  42.1213305  30.7181884  30.8312163  51.8883760
  30.7670040  31.7074286  51.5061529  31.2604398  30.2889556  51.3155403
  41.3234605  38.2245752  48.4817625  41.3732610  38.0595760  49.4233148
  41.2148528  37.3573011  48.0915506  30.2070863  40.9034298  35.7709714
  30.3558984  41.5869762  35.1176387  31.0137307  40.8839388  36.2859170
  38.6138367  34.2076680  49.7976932  39.5148230  34.0683145  49.5060930
  38.6886342  34.3731135  50.7375109  32.9481173  31.5843535  48.6430118
  32.0784482  31.8777101  48.3712707  33.1840653  32.1683980  49.3637382
  42.8252802  40.6442694  48.7259647  42.5337610  41.0072674  49.5623108
  42.2124933  39.9309702  48.5472979  44.0248484  38.2095574  41.2462217
  44.8595375  38.6485378  41.4099777  44.1607613  37.7334227  40.4270463
  41.0739990  35.7675309  47.1939705  41.5494111  35.9602955  46.3858556
  40.1505555  35.8234494  46.9483088  35.6520206  27.8023152  46.1595539
  36.1702150  28.5384179  45.8342027  35.2975339  28.1087145  46.9942298
  35.9032801  24.2223435  41.6796435  36.1834554  23.5546624  42.3056862
  36.6883407  24.4152530  41.1671099  33.7066269  43.3982429  33.2421461
  33.1340236  44.0172616  32.7891933  34.2799063  43.9481790  33.7761383
  39.7741659  32.6441069  45.4268010  40.7259082  32.7439166  45.4480234
  39.6045109  31.8519337  45.9366095  37.7956038  29.7296652  45.6127411
  37.2005970  30.0101665  44.9173900  37.5105735  30.2190553  46.3844152
  36.9263529  43.6819579  34.3730044  37.8594202  43.6165140  34.5762919
  36.8386742  44.5175846  33.9144576  39.5551545  42.9985449  31.3333991
  39.4765177  42.6645313  32.2269749  40.3761212  43.4907217  31.3325464
  42.2529737  35.8647188  44.5410310  42.2206057  34.9263189  44.7269994
  42.8630360  35.9431225  43.8076135  42.4024225  32.6558232  44.5868593
  41.8863274  31.8716688  44.3998522  43.2864174  32.3276948  44.7515113
  40.0634952  26.3999247  40.5464406  39.8659773  26.0914335  41.4307738
  40.6734658  27.1260886  40.6762336  48.0706287  36.9263195  43.6816347
  48.8009675  36.6648483  44.2424050  47.4613232  36.1891917  43.7218415
  46.1521584  35.0671058  44.2790798  45.4254747  34.9327023  43.6707290
  45.7368871  35.3747886  45.0847516  33.9751760  38.7860987  52.0438171
  34.8954770  38.9639586  52.2378217  33.9401343  37.8417033  51.8917870
  23.1933925  33.9799581  40.9691446  22.8736709  33.1264889  40.6765820
  22.6467353  34.1948159  41.7249413  26.9713833  36.6962022  44.6860952
  27.1899842  37.6279130  44.7048986  27.3839606  36.3369996  45.4715756
  35.8208599  26.2808154  38.2960937  36.3739637  26.7003608  38.9550960
  36.0578685  25.3543902  38.3383893  31.8441698  32.2695228  54.0763701
  31.7438425  33.2189585  54.0075792  31.6263240  31.9413467  53.2039771
  23.0622185  37.6002493  42.9384567  22.3685656  37.1856445  42.4254522
  23.8095176  37.6423029  42.3417986  39.1987406  28.3908679  37.8039601
  38.6186075  29.0493483  37.4217654  38.9323338  27.5686024  37.3927019
  37.6490972  27.7913737  40.0060922  38.1490751  27.9030272  39.1975241
  38.2926580  27.4874790  40.6461730  31.7072968  35.6992367  52.8928763
  31.2240050  36.4992727  53.0992652  31.7933907  35.7100312  51.9396207
  24.9758928  37.5320746  40.8150582  24.9529616  37.6308434  39.8632465
  25.2859564  38.3785897  41.1367748  27.6346305  39.5896901  44.9297196
  28.5889559  39.5580844  44.8627128  27.4358829  39.1287525  45.7447422
  28.2245688  38.1598017  47.4967994  29.0438577  38.6542096  47.5202831
  28.4982495  37.2429986  47.4685562  37.9812284  30.5508770  36.8595950
  37.0938139  30.8358420  36.6416144  38.3966273  30.3902533  36.0123227
  41.3326820  30.5755291  40.5750289  42.1087210  31.0651743  40.8474906
  40.6074954  31.0013345  41.0322158  43.7699379  31.2882910  41.6324230
  44.3643869  31.0478646  40.9217538  43.8425962  30.5690041  42.2597766
  25.9896534  45.1316521  41.9467394  25.8551002  44.3716922  41.3805392
  25.5728597  45.8557421  41.4796183  37.1255497  40.3153444  30.9543970
  37.8291347  40.5203447  31.5701625  36.4018146  40.8830206  31.2193053
  41.7658113  31.8553038  37.8996359  41.5095048  31.4549673  38.7304567
  41.1410981  32.5696831  37.7746498  46.0770451  34.5949111  40.4067651
  45.5170009  34.6642300  41.1799213  45.4713955  34.4190095  39.6867147
  29.1465660  46.0285838  42.1585837  29.0298044  46.9731270  42.0564527
  28.3258106  45.7259399  42.5471636  39.0342195  40.7535974  33.0042430
  39.8687799  40.3217172  32.8219904  38.8726538  40.5817987  33.9319324
  23.4780602  32.4936151  48.1960191  24.1239465  31.9835105  48.6847416
  23.2697753  33.2304833  48.7703616  30.1720174  46.6814100  45.3741765
  31.0747421  46.7137710  45.6908260  29.9457544  45.7514551  45.3888101
  31.9273776  45.4345086  42.0351844  30.9769407  45.4346948  41.9216216
  32.2306262  44.6877821  41.5187879  35.8136332  23.3518973  38.2030024
  35.0468728  22.7977459  38.3486707  36.2247037  23.4240841  39.0644176
  27.8178093  29.6403768  52.2935205  28.6809554  29.2840573  52.5038530
  27.2443503  29.3017663  52.9810610  40.3302992  53.0768529  39.0256022
  39.7667857  52.9858466  38.2572310  40.2155387  52.2568434  39.5058515
  37.8767424  54.5719721  41.8640243  38.6688716  54.2310545  41.4486542
  38.1164074  54.6814696  42.7842396  39.8358178  53.8328634  34.7357621
  40.6089054  53.2857621  34.5970497  40.1883576  54.6972883  34.9472083
  42.1724455  49.9921300  32.3676071  42.4249976  49.4702821  31.6059534
  41.2349015  49.8287446  32.4702755  47.2167738  48.9957079  40.1750814
  48.0030827  48.5776502  39.8241231  47.4806443  49.9003171  40.3432463
  41.8920744  51.8949406  34.5700446  41.7757002  51.2194310  35.2381531
  42.0023004  51.4081780  33.7532599  44.2352285  51.3559553  38.2747135
  43.8710492  50.8290174  38.9860057  45.0919401  50.9658022  38.1013621
  43.8757772  46.3849453  33.2708484  44.0432174  47.2529689  33.6378955
  43.6854941  46.5476735  32.3469773  40.0845587  51.2980229  40.9711019
  39.1596083  51.1656443  41.1788711  40.3330000  52.0774448  41.4680961
  43.8546993  48.8407110  34.2555151  43.7346618  49.2864161  35.0940631
  43.1599581  49.1892428  33.6968689  37.4454398  50.9413502  41.8054808
  37.5746779  51.1947981  42.7194220  36.7651849  51.5341210  41.4859463
  49.5532059  49.3128584  35.0835485  50.4649915  49.5455970  34.9083182
  49.0441706  49.8965628  34.5210563  46.8968034  45.4886620  43.3325346
  46.0352513  45.7867873  43.6242083  46.9230469  45.7057019  42.4006378
  43.7129603  54.0328810  39.7399151  44.1767949  54.3116513  38.9503774
  43.4486401  53.1312255  39.5572242  42.6498489  50.1551963  36.5488717
  43.3522533  50.6073006  37.0162643  42.3179118  49.5135781  37.1768610
  36.3923823  48.4135515  41.8505850  35.6022877  48.6693044  41.3745961
  36.8835071  49.2283853  41.9557891  38.3438569  48.7780094  38.8089327
  37.5469732  48.8898789  39.3272822  38.1164161  49.1166747  37.9430217
  34.6761526  48.6666006  44.2820841  34.9269565  49.5513016  44.5478417
  35.2121075  48.4870607  43.5095933  37.3421651  54.4868343  37.1978747
  37.8546172  55.2811593  37.3484312  37.9944364  53.7894634  37.1312348
  39.1516536  57.6034099  39.2801500  39.3283164  58.5252064  39.0922484
  39.9473370  57.2892519  39.7095880  47.2384718  40.4923467  45.1549715
  46.8948987  41.3825109  45.0788826  47.6063680  40.3025125  44.2919300
  35.3070568  52.8156998  37.9738317  36.1445790  53.2254006  37.7572025
  35.4848836  51.8756440  37.9438511  47.2035000  50.4832078  33.6622150
  46.6881624  51.2536683  33.9010538  46.9312309  49.8097214  34.2855212
  44.7882111  45.3281779  38.7207389  43.9323708  44.9388629  38.5413027
  45.2009063  45.4073740  37.8607174  46.3181258  42.8628122  43.1198948
  45.8146054  42.8258257  42.3066754  46.6111865  43.7720865  43.1795605
  42.5624144  42.9466852  42.1265130  43.4277141  42.7509661  41.7671020
  42.6301653  42.7177204  43.0534487  46.9921303  48.3559170  35.4881931
  46.6871439  48.6705319  36.3392075  47.9451746  48.4340590  35.5309264
  45.4367735  54.5149394  37.1374885  44.9089097  53.7802153  36.8248123
  44.9355238  55.2924070  36.8914854  40.1686463  45.1769060  39.4981497
  40.7430215  44.9544241  38.7654690  40.7557445  45.2457754  40.2510098
  40.4956050  47.2073521  33.5177382  39.6593362  47.5448207  33.8386657
  40.3560820  47.0722501  32.5804519  42.4709131  42.0510309  38.2256566
  41.8173543  41.7359326  37.6013181  42.4289605  41.4286049  38.9516389
  43.5820335  52.3329604  30.1409858  42.6747397  52.1018857  30.3401007
  44.0791367  51.5367223  30.3283840  45.7046871  48.5392242  42.5504214
  44.7869432  48.7607189  42.3925902  46.1207015  48.6138553  41.6915921
  46.4881919  49.9383658  37.6806894  47.2353738  50.4505055  37.3714016
  46.7573508  49.6167711  38.5411288  44.7608569  52.4342199  34.6633849
  43.8519788  52.1501232  34.7606318  44.7903653  52.8541277  33.8037155
  48.9360756  46.9740774  39.6625684  48.1983513  46.4618160  39.9935926
  49.1887529  46.5341156  38.8508960  49.0372383  39.7517026  40.2567453
  49.3431260  38.8914390  39.9693368  49.7624988  40.3434646  40.0566447
  35.3296739  50.1547713  38.6449051  35.1321139  49.5617074  37.9200117
  34.7743403  49.8499923  39.3624990  43.3093463  50.0470819  40.7643644
  43.3642073  49.0944656  40.6886121  42.4984665  50.2030258  41.2484942
  44.4584657  53.9750942  32.0021927  44.0204087  53.2586801  31.5427565
  45.1995098  54.2027057  31.4407019  41.2485823  48.6647879  38.5234023
  40.4353688  48.9642050  38.9299215  41.7444817  48.2703568  39.2408505
  40.7399898  46.2366235  44.1395258  41.3799277  46.0954994  43.4418221
  39.9077428  45.9500748  43.7633860  41.5160202  55.5368665  40.2530250
  42.3100800  55.0418985  40.0512825  40.8051894  55.0086528  39.8897956
  37.8242965  49.6811747  36.3290003  36.8940553  49.6196202  36.5459965
  37.9200437  49.1587699  35.5326644  37.7428514  46.2066560  38.9168245
  38.0035331  47.1211893  38.8077405  38.5645686  45.7391002  39.0664857
  39.2153439  47.6204317  46.0867069  39.8876493  47.4121679  45.4379718
  38.3883226  47.4226403  45.6472301  48.5795884  52.8335324  31.5953985
  47.9625055  52.1082152  31.4987037  48.1112373  53.5944684  31.2521059
  40.3694430  47.0520748  30.7175289  39.4923897  46.9309549  30.3537536
  40.8452183  46.2606827  30.4654178  31.8896570  51.8397908  40.8116796
  32.5767610  51.5259638  40.2237811  31.7344699  52.7439273  40.5384048
  36.6931293  46.7288105  45.2401820  36.6089481  46.1213774  44.5052230
  35.8713999  47.2197123  45.2411316  46.8655006  45.2141668  40.6072015
  47.3623706  44.4611630  40.2873085  46.0941988  45.2505985  40.0415224
  47.9484787  53.9713355  38.1810438  47.0141066  54.0914818  38.0115143
  48.1261456  53.0685822  37.9170448  43.4489975  47.3559051  40.3343700
  43.0787763  46.8030092  41.0224605  43.9449068  46.7517185  39.7818700
  51.3357338  49.8130675  38.7160472  51.8017791  50.6458666  38.6420775
  51.7864839  49.3475656  39.4205731  49.3074001  42.1811262  42.7551374
  48.3937081  42.4115488  42.9233581  49.7367103  42.2649706  43.6065406
  31.4664546  49.9198501  43.0834263  31.5048646  49.3862092  43.8771381
  30.9604839  49.3933707  42.4645240  38.8455309  44.7663042  46.5796806
  38.9096635  45.6277873  46.1674203  38.7822429  44.1537044  45.8469164
  35.0973124  48.6462604  36.1588195  35.3926565  47.7373282  36.1055248
  34.1961160  48.6250343  35.8369197  38.6267371  46.7218600  42.1415743
  37.9053957  47.3354568  42.0023217  39.4160627  47.2576365  42.0632389
  36.8260966  46.3276701  36.2827520  36.4973672  45.4474080  36.1002626
  37.1800336  46.2724370  37.1703909  39.9402789  46.6149671  36.6502998
  40.2798861  47.1435592  35.9281606  40.3874909  46.9530077  37.4261564
  42.6346230  44.9986722  46.1006066  42.2943050  44.1994535  46.5026745
  41.9285236  45.2988433  45.5282899  43.2862701  42.0836034  44.5533389
  44.1088771  41.6096512  44.4312279  43.5300765  42.8626518  45.0532075
  41.9270936  45.1124293  34.8496290  42.6479298  45.4905545  34.3460007
  41.3036240  45.8313169  34.9531268  46.0702059  45.8169442  35.7854623
  46.2865673  46.6994079  35.4843451  45.5896126  45.4255655  35.0560265
  40.8101280  48.7755155  42.3625367  40.6645861  49.0895458  43.2549649
  40.3326484  49.3940055  41.8096266  42.6697663  45.7657703  42.4106257
  42.6559232  44.8698796  42.0738555  43.3870091  45.7728367  43.0444543
  44.5223794  46.1995043  44.4559384  44.2641572  47.1212114  44.4543715
  43.9908834  45.8025478  45.1459848  35.2846942  51.3160499  45.3013028
  34.7400410  52.0920307  45.4333303  36.1626292  51.6631304  45.1432150
  42.0734559  44.6472083  37.6793827  42.1950470  43.7188729  37.8784714
  41.7836601  44.6610769  36.7672142  44.9425749  42.3326994  40.8160547
  44.9647446  42.3966327  39.8612526  45.3593808  41.4931502  41.0101053
  36.5169578  58.3295824  40.2253580  37.3427598  58.0299596  39.8452223
  36.1663630  57.5603447  40.6743369  34.7178183  56.2482151  41.1842513
  33.8810091  55.8204325  41.0026515  34.6901828  56.4414594  42.1213305
  41.0464618  56.2326216  35.7709714  41.1952738  56.9161680  35.1176387
  41.8531061  56.2131306  36.2859170  38.8017251  52.2591393  36.7770783
  38.5563293  51.3553723  36.9750993  38.9713166  52.2608544  35.8350261
  38.0712899  47.9919751  34.2756944  37.3782143  48.0664106  33.6196980
  37.8264650  47.2280095  34.7978461  46.7426555  39.5515352  41.6796435
  47.0228309  38.8838541  42.3056862  47.5277162  39.7444448  41.1671099
  44.9306822  50.0635159  30.5837514  45.8765927  49.9341367  30.6525932
  44.5521067  49.3249821  31.0606942  50.9028707  41.7291165  40.5464406
  50.7053528  41.4206253  41.4307738  51.5128412  42.4552804  40.6762336
  43.1149739  47.9885135  30.5192399  42.2081195  47.6918248  30.5955113
  43.3925720  47.6914953  29.6526685  34.0327680  49.3091499  40.9691446
  33.7130464  48.4556807  40.6765820  33.4861108  49.5240077  41.7249413
  44.7311805  42.5322025  36.6736640  43.9212533  42.1869110  37.0491887
  45.4196222  42.2229569  37.2624252  46.6602353  41.6100072  38.2960937
  47.2133392  42.0295525  38.9550960  46.8972440  40.6835820  38.3383893
  41.8848524  44.8472071  30.6604378  42.7467688  45.1726969  30.9200196
  42.0698868  44.0603566  30.1477444  33.9015940  52.9294410  42.9384567
  33.2079411  52.5148363  42.4254522  34.6488931  52.9714947  42.3417986
  50.0381160  43.7200597  37.8039601  49.4579829  44.3785401  37.4217654
  49.7717093  42.8977942  37.3927019  48.4884727  43.1205655  40.0060922
  48.9884505  43.2322189  39.1975241  49.1320335  42.8166708  40.6461730
  35.8152682  52.8612664  40.8150582  35.7923370  52.9600351  39.8632465
  36.1253319  53.7077815  41.1367748  48.8206038  45.8800687  36.8595950
  47.9331893  46.1650338  36.6416144  49.2360027  45.7194451  36.0123227
  52.1720574  45.9047208  40.5750289  52.9480965  46.3943661  40.8474906
  51.4468709  46.3305263  41.0322158  48.7947062  51.3955223  37.0746240
  48.7382263  51.8523775  36.2353872  49.3475405  50.6345908  36.8969083
  52.6051868  47.1844955  37.8996359  52.3488802  46.7841591  38.7304567
  51.9804736  47.8988749  37.7746498  49.5281841  52.5860005  34.3698769
  49.4730645  52.4204276  33.4287213  48.9027897  53.2936037  34.5260959
  34.3174356  47.8228069  48.1960191  34.9633220  47.3127023  48.6847416
  34.1091507  48.5596751  48.7703616  42.8377967  42.0868114  33.9484087
  42.8256637  43.0309954  34.1052358  43.7301389  41.9038259  33.6543549
  46.6530086  38.6810890  38.2030024  45.8862482  38.1269377  38.3486707
  47.0640791  38.7532759  39.0644176  22.7928668  -2.4288660  29.7604438
  22.4547180  -2.5447595  28.8724973  23.6618437  -2.8297495  29.7405444
  18.6515484  -0.5753184  25.7501329  18.0880349  -0.6663247  24.9817616
  18.5367879  -1.3953279  26.2303821  23.2748451  -1.2753808  35.7190643
  23.2637092  -1.6701010  34.8471147  23.4369091  -2.0087736  36.3124415
  16.1979916   0.9198008  28.5885549  16.9901208   0.5788833  28.1731848
  16.4376566   1.0292983  29.5087702  24.2315043   3.0917784  21.0615794
  23.5803022   3.6771865  20.6749807  25.0259406   3.6223979  21.1210831
  18.1570670   0.1806921  21.4602928  18.9301546  -0.3664092  21.3215804
  18.5096069   1.0451171  21.6717389  19.9955712   1.5083304  34.6669827
  19.7045578   2.4128934  34.5516494  20.6312697   1.5499831  35.3813897
  20.9211919  -1.1139848  31.2571187  21.5175492  -1.3383825  30.5428150
  20.9786891  -1.8555102  31.8596635  25.7090308   0.7808216  21.5984778
  25.0736141   0.8542843  22.3105683  25.3787714   1.3701815  20.9203857
  20.2133236  -1.7572307  21.2945753  20.0969495  -2.4327403  21.9626837
  20.3235496  -2.2439933  20.4777906  22.5564777  -2.2962159  24.9992442
  22.1922985  -2.8231539  25.7105364  23.4131893  -2.6863690  24.8258927
  24.9545598   1.1944719  31.6619621  24.6546321   2.0969758  31.5535428
  24.6096657   0.9276902  32.5140774  18.4058079  -2.3541484  27.6956325
  17.4808575  -2.4865270  27.9034017  18.6542492  -1.5747265  28.1926268
  19.9366377   7.9589039  24.6290589  19.8590407   8.9096865  24.7079069
  19.3328021   7.6134912  25.2865515  20.6829979  -2.0597642  36.8469923
  21.4244664  -1.5212598  36.5704746  19.9766965  -1.4331353  37.0041474
  26.1585319   0.0831499  35.4442084  26.5668675  -0.3586091  34.6996716
  25.4362581  -0.4915874  35.6976277  26.4814134   0.6432689  29.1994373
  25.8522996   0.8078403  28.4970441  26.0939796   1.0574299  29.9705337
  30.3603366   1.5787127  26.5538737  29.6754404   1.9586029  26.0035770
  30.4447215   2.1882454  27.2870684  22.0342096   0.3807097  26.4644458
  22.4980441   0.6594800  25.6749081  21.7698894  -0.5209458  26.2817549
  18.9266177  -0.0721421  29.4024221  19.4967534   0.3565847  28.7641706
  19.5174288  -0.3538836  30.1008407  28.7300125   2.1019042  31.3256438
  29.5517569   1.6999229  31.0439119  28.7262528   1.9987276  32.2772553
  22.4956729   1.6503085  33.4817148  22.5601161   2.1123492  34.3175320
  21.7867652   1.0200450  33.6099458  22.2104746   3.3171192  23.3496128
  22.0750421   4.1622728  23.7780976  22.7514559   3.5190470  22.5862062
  15.6634144   0.8346630  23.9224053  16.1758664   1.6289881  24.0729618
  16.3156856   0.1372921  23.8557655  17.4729028   3.9512387  26.0046807
  17.6495657   4.8730351  25.8167791  18.2685862   3.6370806  26.4341186
  23.8373223   3.9394759  37.4796470  23.3937077   3.1531137  37.1617375
  24.4990436   4.1273909  36.8140361  18.5960344   5.4690561  32.0057149
  19.1467769   5.3407624  31.2334143  17.7571820   5.7685450  31.6552042
  25.9354461   4.2197559  35.5077872  25.9172936   5.0406440  35.0158141
  26.8574381   4.0951634  35.7328013  22.3927515   1.7341688  36.3501380
  22.9255852   0.9729977  36.1200688  21.8641596   1.4415340  37.0925535
  23.7580228   0.8627681  23.8620192  23.2301589   0.1280440  23.5493430
  23.2567730   1.6402357  23.6160160  28.7373074  -0.9423299  28.9787238
  28.0796748  -0.2524037  29.0667367  29.5413473  -0.5526867  29.3221225
  21.9032828  -1.3192109  16.8655165  20.9959889  -1.5502855  17.0646314
  22.4003860  -2.1154490  17.0529147  24.8100907   7.3905398  19.7851851
  24.1362605   7.6937095  20.3936809  25.1966729   8.1934479  19.4357308
  23.0821061  -1.2179514  21.3879155  22.1732280  -1.5020481  21.4851625
  23.1116145  -0.7980435  20.5282462  28.3140329   2.3927075  25.1570323
  27.8602656   1.5517985  25.2135513  27.6834295   3.0288474  25.4945103
  26.7573268   4.2303572  26.0920141  27.0496242   4.7908629  25.3732507
  27.2671888   4.5232133  26.8473300  22.7797149   0.3229230  18.7267234
  22.3416579  -0.3934911  18.2672871  23.5207590   0.5505344  18.1652325
  21.7206893   5.0083923  27.1813594  21.6783072   5.2344770  26.2522126
  22.6369592   4.7747298  27.3299395  30.9239643   0.6662954  29.7954824
  31.3576150   0.5738243  30.6437878  31.6371224   0.6420454  29.1574840
  19.8372694   1.8846952  26.9775557  20.6313292   1.3897272  26.7758132
  19.1264386   1.3564815  26.6143262  24.6567538   4.2665048  31.3287924
  24.7104561   4.8355984  32.0965640  23.7882320   4.4366933  30.9641962
  31.7855193   0.7086654  32.3287709  31.9791083   1.6132465  32.5746984
  31.6855811   0.2494073  33.1626294  26.8470302   0.8593397  37.9028590
  26.6955808   0.6303949  36.9858674  26.8374981   1.8163998  37.9159935
  23.6155638  -1.5674690  32.8874856  24.5447698  -1.4163531  32.7143824
  23.1946668  -1.4790669  32.0323503  22.4143970   2.4575974  30.6573394
  22.2755055   2.0894759  31.5299332  21.6258566   2.9723614  30.4857352
  23.0092122   7.5585071  21.9998930  23.1843877   7.0873114  22.8144553
  22.3224910   8.1850837  22.2280191  23.9649185   1.8357577  28.0462232
  23.6299018   1.7958347  28.9419882  23.4653131   1.1702293  27.5732642
  17.9393429  -2.7574793  33.5714813  17.8013227  -3.4894554  34.1726352
  18.8498352  -2.8465893  33.2899001  26.9008377  -0.8186389  18.3199291
  26.2837547  -1.5439561  18.2232344  26.4324865  -0.0577028  17.9766366
  20.5675730  -3.0454834  33.0598493  21.2775348  -3.6861642  33.0185111
  20.5245038  -2.7941939  33.9824673  28.5562508   3.8912520  35.9805072
  28.4975054   3.2071740  35.3135655  28.9582027   4.6331510  35.5285698
  17.5753207  10.7074433  28.7738791  17.8149805  11.3392958  29.4517809
  16.7322404  10.3562473  29.0604150  28.5579916   1.8552104  34.2119051
  27.6706694   1.5178025  34.3345450  29.1278467   1.1235135  34.4487817
  22.0881069   6.5153556  31.1780295  22.0151240   7.3208527  31.6899599
  21.6458462   6.7145522  30.3528316  21.8770849   5.7525326  24.6883116
  21.0938370   6.2947006  24.7821341  22.5763594   6.2699306  25.0877357
  24.5479752   6.4140390  33.3338453  25.2607725   7.0487855  33.2614355
  24.0569781   6.5104256  32.5178455  26.2697279   0.3191643  24.9055745
  25.3353558   0.4393105  24.7360449  26.4473948  -0.5835891  24.6415755
  19.5991666   4.1634833  34.1544024  20.3001125   4.7971316  34.3073418
  19.1286781   4.5049565  33.3939663  27.7246062   2.5052783  22.4391931
  28.0005906   2.3909378  23.3485805  26.8550561   2.1070268  22.4004104
  24.3600126   6.7539134  26.0824745  24.5422520   5.9360790  26.5452497
  25.1833112   6.9706826  25.6449635  24.6942291   5.6807319  23.3439793
  25.2230058   5.1699774  22.7309955  24.9570511   5.3649849  24.2085326
  23.4480525  -2.5400748  38.4662612  22.7721162  -2.6406619  39.1364987
  24.2708159  -2.6961534  38.9298609  15.1959384   3.6971188  31.0875127
  15.7812821   2.9514876  31.2203031  14.9984222   4.0075145  31.9711791
  18.0498039   6.7322436  26.1037569  17.3808415   7.2168563  25.6201609
  17.9110909   6.9791656  27.0180948  22.1903308   8.7666179  32.7020228
  22.7421616   8.9297801  33.4669313  22.5309501   9.3570617  32.0300252
  27.0414182   3.5927437  38.5568882  27.5854086   4.2057395  38.0623837
  26.4601027   4.1507015  39.0735895  25.3271695   6.7148155  29.6883910
  25.2022835   5.9137895  29.1794855  25.9850786   7.2094348  29.1997880
  27.3906604   4.5157175  31.3163460  26.4436939   4.3962526  31.2441787
  27.7389377   3.6279673  31.3989721  24.3953037   4.3109891  27.5167812
  24.2477999   3.3826599  27.6975382  25.2206530   4.3329982  27.0324887
  27.9987159   5.1338450  28.6032685  28.9233706   4.9281311  28.4657136
  27.8302462   4.8854851  29.5122026  27.7882475   5.6524117  23.9594776
  27.9619352   5.0870540  23.2068629  28.2811366   6.4525012  23.7774266
  28.7757647   4.9690882  21.0591675  29.4708552   5.5897574  21.2778989
  29.1180797   4.1186233  21.3344052  30.6749070   2.4190587  22.5879005
  31.2000395   2.7577860  21.8628325  30.5871423   1.4837603  22.4042140
  22.3369119   6.3324661  34.7168882  22.6456246   6.0873808  35.5891581
  23.1344601   6.5371299  34.2287752  22.3589731   8.4862571  26.9474258
  21.9194722   7.9938949  27.6407115  23.1097848   7.9435538  26.7066334
  14.8382070   4.6774111  26.9498887  15.6640090   4.3777883  26.5697530
  14.4876122   3.9081734  27.3988675  19.8063603   4.0300580  29.0196560
  19.1843613   3.3671285  28.7198788  20.4768470   4.0561712  28.3370208
  13.0390675   2.5960438  27.9087820  12.2022584   2.1682612  27.7271821
  13.0114321   2.7892881  28.8458611  30.3642977   3.0523491  37.8930203
  29.5738520   3.0347630  37.3534703  30.1276331   3.5911785  38.6479240
  19.3677110   2.5804503  22.4955021  19.5165231   3.2639967  21.8421693
  20.1743554   2.5609593  23.0104476  31.9859048   2.3212899  35.4504953
  31.6943857   2.6842879  36.2868414  31.3731180   1.6079907  35.2718285
  17.1229743  -1.3930319  23.5016090  16.8775785  -2.2967989  23.6996300
  17.2925658  -1.3913169  22.5595568  22.8672516   5.0752633  19.9666768
  22.2946483   5.6942821  19.5137240  23.4405309   5.6251995  20.5006690
  26.0869776   5.3589784  21.0975350  27.0200449   5.2935345  21.3008226
  25.9992988   6.1946050  20.6389883  28.7157792   4.6755654  18.0579298
  28.6371424   4.3415518  18.9515056  29.5367459   5.1677422  18.0570770
  23.1358007   0.4631192  38.7683478  24.0561016   0.6409791  38.9623524
  23.1007590  -0.4812762  38.6163177  16.1320079  -1.6267773  31.4106259
  16.3506089  -0.6950665  31.4294293  16.5445853  -1.9859799  32.1961063
  20.8679215  -2.6237428  39.6174069  20.3846296  -1.8237068  39.8237958
  20.9540154  -2.6129484  38.6641513  14.1365174  -0.7909049  27.5395889
  14.1135862  -0.6921361  26.5877772  14.4465811   0.0556102  27.8613055
  16.7952552   1.2667106  31.6542503  17.7495806   1.2351049  31.5872435
  16.5965076   0.8057730  32.4692729  17.3851934  -0.1631778  34.2213301
  18.2044823   0.3312301  34.2448138  17.6588742  -1.0799810  34.1930868
  15.1502781   6.8086726  28.6712701  15.0157249   6.0487127  28.1050699
  14.7334843   7.5327626  28.2041490  26.2861744   1.9923649  17.6789276
  26.9897594   2.1973652  18.2946932  25.5624393   2.5600411  17.9438360
  18.3071907   7.7056043  28.8831144  18.1904291   8.6501475  28.7809834
  17.4864353   7.4029604  29.2716943  28.1948441   2.4306179  19.7287736
  29.0294045   1.9987377  19.5465211  28.0332784   2.2588192  20.6564631
  27.8494334  -1.0661708  21.0944076  27.7943137  -1.2317437  20.1532520
  27.2240389  -0.3585675  21.2506265  25.1640241   1.2387204  40.4197638
  26.0331400   1.4127856  40.0584273  24.6846992   2.0581621  40.2973368
  19.3326421   8.3584305  32.0987072  20.2353668   8.3907915  32.4153567
  19.1063791   7.4284756  32.1133408  21.0880023   7.1115291  28.7597151
  20.1375654   7.1117153  28.6461523  21.3912509   6.3648026  28.2433185
  36.8232717  12.9475830  29.8242913  37.4611126  12.8282577  29.1206253
  36.7053559  13.8956674  29.8830865  33.6322423  12.9003258  29.7604438
  33.2940934  12.7844322  28.8724973  34.5012191  12.4994423  29.7405444
  29.4909239  14.7538734  25.7501329  28.9274104  14.6628671  24.9817616
  29.3761634  13.9338639  26.2303821  34.1142206  14.0538109  35.7190643
  34.1030847  13.6590908  34.8471147  34.2762845  13.3204182  36.3124415
  27.0373670  16.2489926  28.5885549  27.8294962  15.9080750  28.1731848
  27.2770321  16.3584901  29.5087702  30.8349467  16.8375221  34.6669827
  30.5439333  17.7420852  34.5516494  31.4706451  16.8791749  35.3813897
  31.7605674  14.2152070  31.2571187  32.3569246  13.9908092  30.5428150
  31.8180645  13.4736815  31.8596635  31.3330702  11.6691505  19.0921378
  31.5856223  11.1473026  18.3304841  30.3955261  11.5057651  19.1948061
  36.3773985  10.6727283  26.8996121  37.1637074  10.2546707  26.5486538
  36.6412689  11.5773376  27.0677769  36.5484062  16.1100134  21.5984778
  35.9129895  16.1834760  22.3105683  36.2181469  16.6993733  20.9203857
  41.7782412  10.6102517  27.8029100  42.5107584  10.0401733  28.0366929
  41.0221768  10.2224117  28.2435605  31.0526991  13.5719611  21.2945753
  30.9363249  12.8964514  21.9626837  31.1629251  13.0851985  20.4777906
  33.3958532  13.0329758  24.9992442  33.0316739  12.5060379  25.7105364
  34.2525648  12.6428227  24.8258927  39.3007832   4.3224091  32.2623708
  38.9691157   5.1919502  32.0384923  38.7053446   4.0060375  32.9417739
  33.0364019   8.0619658  19.9953791  33.2038421   8.9299894  20.3624262
  32.8461188   8.2246940  19.0715080  35.7939352  16.5236637  31.6619621
  35.4940075  17.4261676  31.5535428  35.4490412  16.2568820  32.5140774
  29.2451834  12.9750434  27.6956325  28.3202330  12.8426648  27.9034017
  29.4936247  13.7544653  28.1926268  39.1936496   9.0419177  29.3417058
  38.2853373   8.9734585  29.0475819  39.1424092   9.5191122  30.1698884
  33.0153240  10.5177315  20.9800457  32.8952865  10.9634366  21.8185938
  32.3205828  10.8662633  20.4213996  26.6060645  12.6183707  28.5300114
  26.7353026  12.8718186  29.4439526  25.9258096  13.2111415  28.2104770
  33.2677362  10.4608823  37.2851956  32.4910696  11.0202743  37.2754820
  33.9067925  10.9465606  37.8066826  41.0598142   7.2435615  31.1194932
  40.4172522   7.5368149  30.4734727  40.5553071   7.1288536  31.9248129
  38.7138306  10.9898789  21.8080791  39.6256162  11.2226175  21.6328489
  38.2047953  11.5735833  21.2455870  31.5223734  13.2694276  36.8469923
  32.2638418  13.8079320  36.5704746  30.8160719  13.8960565  37.0041474
  36.9979074  15.4123416  35.4442084  37.4062430  14.9705827  34.6996716
  36.2756335  14.8376044  35.6976277  33.3510144  10.3496023  32.8175641
  34.1971339  10.7735437  32.9610290  33.2908781   9.6929647  33.5114204
  37.3207888  15.9724607  29.1994373  36.6916751  16.1370321  28.4970441
  36.9333550  16.3866217  29.9705337  41.1997120  16.9079045  26.5538737
  40.5148158  17.2877946  26.0035770  41.2840969  17.5174372  27.2870684
  36.5009589   8.0100392  34.4756815  36.2570521   8.7642452  33.9391090
  36.7769519   8.3885739  35.3104062  38.4548052  14.5539004  33.1534080
  38.6664947  15.1970764  32.4768461  38.4077800  13.7201320  32.6856010
  36.0574281   7.1656825  30.0570652  35.1958760   7.4638078  30.3487390
  36.0836715   7.3827223  29.1251685  29.7659931  15.2570497  29.4024221
  30.3361288  15.6857765  28.7641706  30.3568043  14.9753081  30.1008407
  31.8104736  11.8322167  23.2734023  32.5128779  12.2843211  23.7407950
  31.4785365  11.1905986  23.9013916  30.2585098  10.4233924  37.6485233
  29.6283758  11.1050205  37.8820629  30.1521186  10.3117006  36.7038371
  25.5530070  10.0905720  28.5751157  24.7629124  10.3463249  28.0991267
  26.0441317  10.9054058  28.6803197  39.5693880  17.4310959  31.3256438
  40.3911323  17.0291147  31.0439119  39.5656283  17.3279193  32.2772553
  27.5044815  10.4550299  25.5334633  26.7075979  10.5668994  26.0518129
  27.2770408  10.7936952  24.6675524  33.3350483  16.9795003  33.4817148
  33.3994916  17.4415410  34.3175320  32.6261407  16.3492368  33.6099458
  23.8367773  10.3436211  31.0066148  24.0875811  11.2283220  31.2723723
  24.3727321  10.1640812  30.2341239  47.6599873  13.7749708  27.6741409
  46.9063581  13.2057106  27.5185413  47.7947414  13.7412372  28.6212044
  29.5365840   4.7254690  40.0110484  29.1432786   4.1720888  40.6858128
  30.3531981   5.0365268  40.4017001  26.5027898  16.1638548  23.9224053
  27.0152419  16.9581798  24.0729618  27.1550611  15.4664839  23.8557655
  32.4533801   6.1412569  37.6030740  33.1943515   6.7419722  37.5235203
  32.6851724   5.3990207  37.0448783  27.5975139  11.3268936  35.8808970
  27.4828655  10.4254194  36.1816069  26.7419657  11.5732633  35.5293786
  34.6766977  19.2686677  37.4796470  34.2330831  18.4823055  37.1617375
  35.3384191  19.4565827  36.8140361  36.7748215  19.5489477  35.5077872
  36.7566691  20.3698358  35.0158141  37.6968135  19.4243552  35.7328013
  33.2321269  17.0633606  36.3501380  33.7649606  16.3021894  36.1200688
  32.7035350  16.7707258  37.0925535  36.3990964   2.1693672  31.8795022
  36.0555234   3.0595314  31.8034132  36.7669927   1.9795330  31.0164607
  24.4676815  14.4927202  24.6983624  25.3052037  14.9024211  24.4817332
  24.6455083  13.5526645  24.6683818  36.3641247  12.1602283  20.3867457
  35.8487870  12.9306888  20.6255844  36.0918555  11.4867419  21.0100518
  33.9488358   7.0051984  25.4452695  33.0929954   6.6158834  25.2658334
  34.3615310   7.0843945  24.5852481  35.4787505   4.5398327  29.8444255
  34.9752300   4.5028462  29.0312060  35.7718112   5.4491070  29.9040912
  31.7230391   4.6237057  28.8510437  32.5883387   4.4279866  28.4916326
  31.7907899   4.3947409  29.7779794  41.3375521  14.9134638  22.3220630
  40.5604964  14.5745797  21.8775793  42.0167002  14.9187261  21.6475595
  36.1527550  10.0329375  22.2127238  35.8477686  10.3475524  23.0637381
  37.1057992  10.1110795  22.2554571  39.5766828  14.3868619  28.9787238
  38.9190503  15.0767880  29.0667367  40.3807227  14.7765051  29.3221225
  29.3292710   6.8539265  26.2226804  29.9036462   6.6314446  25.4899997
  29.9163692   6.9227959  26.9755405  38.3872287  12.7412992  27.0291180
  38.9004169  13.3742984  27.5312890  39.0373511  12.1414187  26.6634540
  29.6562297   8.8843726  20.2422689  28.8199609   9.2218412  20.5631964
  29.5167066   8.7492706  19.3049826  31.6315377   3.7280514  24.9501873
  30.9779790   3.4129531  24.3258488  31.5895852   3.1056254  25.6761696
  32.7426582  14.0099809  16.8655165  31.8353644  13.7789062  17.0646314
  33.2397614  13.2137428  17.0529147  34.8653118  10.2162447  29.2749521
  33.9475679  10.4377394  29.1171209  35.2813261  10.2908758  28.4161228
  35.6488165  11.6153863  24.4052201  36.3959984  12.1275260  24.0959323
  35.9179755  11.2937916  25.2656595  33.9214816  14.1112404  21.3879155
  33.0126035  13.8271436  21.4851625  33.9509899  14.5311482  20.5282462
  39.1534083  17.7218993  25.1570323  38.6996410  16.8809903  25.2135513
  38.5228050  18.3580391  25.4945103  38.0967003   8.6510979  26.3870990
  37.3589759   8.1388365  26.7181233  38.3493776   8.2111361  25.5754267
  24.4902986  11.8317918  25.3694357  24.2927386  11.2387278  24.6445424
  23.9349650  11.5270128  26.0870296  32.4699710  11.7241024  27.4888951
  32.5248319  10.7714861  27.4131427  31.6590912  11.8800463  27.9730249
  33.6190903  15.6521147  18.7267234  33.1810333  14.9357006  18.2672871
  34.3601344  15.8797262  18.1652325  30.4092070  10.3418084  25.2479329
  29.5959935  10.6412255  25.6544522  30.9051064   9.9473773  25.9653812
  36.0066281  10.8059908  34.0794223  36.3615669  11.0331382  34.9388689
  36.6538413  11.1378285  33.4571479  41.7364018  13.9278344  24.7843552
  41.5981917  14.1179940  23.8564742  41.3800237  14.6897727  25.2411604
  29.9006144   7.9136439  30.8640564  30.5405524   7.7725199  30.1663528
  29.0683675   7.6270953  30.4879166  41.7633398  15.9954871  29.7954824
  42.1969905  15.9030160  30.6437878  42.4764979  15.9712372  29.1574840
  35.4961293  19.5956965  31.3287924  35.5498315  20.1647902  32.0965640
  34.6276074  19.7658850  30.9641962  26.9849212  11.3581952  23.0535310
  26.0546800  11.2966407  23.2705272  27.0806684  10.8357904  22.2571951
  26.9034761   7.8836764  25.6413551  27.1641578   8.7982098  25.5322712
  27.7251933   7.4161207  25.7910164  28.3759686   9.2974522  32.8112376
  29.0482740   9.0891884  32.1625025  27.5489473   9.0996608  32.3717608
  42.6248947  16.0378572  32.3287709  42.8184838  16.9424382  32.5746984
  42.5249566  15.5785991  33.1626294  34.2785258   5.9236463  34.8278037
  33.6313173   6.6226412  34.7342513  35.0486274   6.3572606  35.1954285
  37.6864056  16.1885315  37.9028590  37.5349563  15.9595866  36.9858674
  37.6768736  17.1455916  37.9159935  34.4549393  13.7617227  32.8874856
  35.3841453  13.9128387  32.7143824  34.0340423  13.8501248  32.0323503
  33.2537724  17.7867892  30.6573394  33.1148810  17.4186676  31.5299332
  32.4652321  18.3015531  30.4857352  28.7787183  12.5717125  33.5714813
  28.6406981  11.8397363  34.1726352  29.6892107  12.4826025  33.2899001
  37.7402131  14.5105529  18.3199291  37.1231302  13.7852357  18.2232344
  37.2718620  15.2714889  17.9766366  31.4069484  12.2837084  33.0598493
  32.1169103  11.6430276  33.0185111  31.3638792  12.5349979  33.9824673
  39.3956263  19.2204437  35.9805072  39.3368809  18.5363657  35.3135655
  39.7975781  19.9623427  35.5285698  30.1198418   9.2702302  34.8794132
  29.5835775   8.8193040  35.5315728  29.5315126   9.4048211  34.1364596
  29.5300677   8.7290953  17.4420596  28.6530143   8.6079754  17.0782842
  30.0058430   7.9377032  17.1899484  39.3973670  17.1844021  34.2119051
  38.5100449  16.8469943  34.3345450  39.9672221  16.4527052  34.4487817
  21.0502817  13.5168113  27.5362103  21.7373857  13.2029843  26.9483118
  20.8950946  14.4209478  27.2629354  25.8537539   8.4058310  31.9647127
  25.7695728   7.7983979  31.2297536  25.0320246   8.8967328  31.9656623
  36.0261253   6.8911873  27.3317322  36.5229953   6.1381835  27.0118392
  35.2548235   6.9276190  26.7660531  43.8791011  12.5952239  28.9735613
  43.8680887  13.4776954  28.6029546  43.0108390  12.2423789  28.7790150
  35.3873507  21.7432308  33.3338453  36.1001479  22.3779772  33.2614355
  34.8963536  21.8396174  32.5178455  37.1091034  15.6483560  24.9055745
  36.1747313  15.7685023  24.7360449  37.2867702  14.7456027  24.6415755
  32.6096222   9.0329256  27.0589006  32.2394009   8.4800296  27.7469912
  33.1055314   8.4287390  26.5064006  40.4963585  11.4900880  25.4405779
  40.9624037  12.3228871  25.3666082  40.9471086  11.0245861  26.1451038
  38.5639816  17.8344701  22.4391931  38.8399660  17.7201295  23.3485805
  37.6944315  17.4362186  22.4004104  38.4680248   3.8581467  29.4796680
  37.5543328   4.0885693  29.6478887  38.8973349   3.9419911  30.3310713
  38.2386706  12.0471359  31.9796574  37.5858157  12.2947266  31.3249027
  38.6167086  11.2335497  31.6459052  34.2874279  12.7891170  38.4662612
  33.6114916  12.6885299  39.1364987  35.1101913  12.6330383  38.9298609
  20.6270793  11.5968706  29.8079570  20.6654893  11.0632297  30.6016688
  20.1211086  11.0703912  29.1890547  33.0297062  24.0958097  32.7020228
  33.5815370  24.2589719  33.4669313  33.3703256  24.6862535  32.0300252
  28.0061556   6.4433247  33.3042112  28.0702882   7.3048078  32.8919510
  27.9428676   5.8307248  32.5714471  27.4813828   8.5156379  36.9515147
  28.1085867   8.1333457  37.5652671  26.6241747   8.2970581  37.3170839
  37.8807937  18.9219355  38.5568882  38.4247841  19.5349313  38.0623837
  37.2994782  19.4798933  39.0735895  24.2579371  10.3232808  22.8833501
  24.5532812   9.4143487  22.8300555  23.3567407  10.3020548  22.5614504
  27.7873618   8.3988805  28.8661050  27.0660204   9.0124773  28.7268523
  28.5766874   8.9346570  28.7877696  38.2300358  19.8449093  31.3163460
  37.2830694  19.7254444  31.2441787  38.5783131  18.9571591  31.3989721
  30.5899931   5.7343232  35.1401702  31.1134333   5.9805528  35.9028011
  30.3712265   6.5663266  34.7204839  25.9867212   8.0046906  23.0072826
  25.6579919   7.1244285  22.8247932  26.3406583   7.9494575  23.8949216
  29.1009036   8.2919876  23.3748304  29.4405108   8.8205797  22.6526913
  29.5481156   8.6300282  24.1506871  38.8380913  20.4630368  28.6032685
  39.7627461  20.2573229  28.4657136  38.6696217  20.2146769  29.5122026
  31.7952476   6.6756927  32.8251372  31.4549297   5.8764740  33.2272052
  31.0891483   6.9758638  32.2528205  32.4468948   3.7606239  31.2778695
  33.2695018   3.2866717  31.1557586  32.6907012   4.5396723  31.7777382
  31.0877183   6.7894498  21.5741597  31.8085545   7.1675750  21.0705314
  30.4642487   7.5083374  21.6776575  35.2308306   7.4939647  22.5099929
  35.4471920   8.3764284  22.2088757  34.7502373   7.1025860  21.7805571
  29.9707527  10.4525360  29.0870674  29.8252108  10.7665663  29.9794955
  29.4932731  11.0710260  28.5341572  31.8303910   7.4427908  29.1351563
  31.8165479   6.5469001  28.7983861  32.5476338   7.4498571  29.7689849
  33.6830041   7.8765248  31.1804691  33.4247818   8.7982319  31.1789021
  33.1515081   7.4795682  31.8705155  38.6276229  20.9816035  23.9594776
  38.8013107  20.4162458  23.2068629  39.1205121  21.7816930  23.7774266
  24.4453189  12.9930704  32.0258335  23.9006657  13.7690512  32.1578609
  25.3232539  13.3401509  31.8677456  31.2340806   6.3242288  24.4039134
  31.3556717   5.3958934  24.6030021  30.9442848   6.3380974  23.4917449
  34.1031996   4.0097198  27.5405853  34.1253693   4.0736532  26.5857833
  34.5200055   3.1701707  27.7346360  44.4815621  13.7452458  25.5785076
  44.9246767  12.9959783  25.1804199  43.6042131  13.7362594  25.1958808
  39.6151402  20.2982799  21.0591675  40.3102306  20.9189492  21.2778989
  39.9574552  19.4478151  21.3344052  25.2319211  12.1200600  34.9188492
  24.4900947  12.2683236  35.5053122  24.9111955  12.3808866  34.0555241
  41.5142825  17.7482505  22.5879005  42.0394149  18.0869778  21.8628325
  41.4265178  16.8129520  22.4042140  33.1762874  21.6616579  34.7168882
  33.4850000  21.4165725  35.5891581  33.9738356  21.8663217  34.2287752
  23.8784430  17.9252356  27.9087820  23.0416338  17.4974530  27.7271821
  23.8508075  18.1184799  28.8458611  30.7181885   7.8374285  38.6129066
  30.7670041   8.7136408  38.2306836  31.2604400   7.2951678  38.0400709
  41.2036731  18.3815409  37.8930203  40.4132275  18.3639547  37.3534703
  40.9670086  18.9203702  38.6479240  41.3234606  15.2307875  35.2062932
  41.3732611  15.0657882  36.1478455  41.2148529  14.3635134  34.8160813
  38.6138368  11.2138803  36.5222238  39.5148231  11.0745268  36.2306236
  38.6886343  11.3793258  37.4620416  32.9481174   8.5905658  35.3675425
  32.0784483   8.8839224  35.0958013  33.1840654   9.1746103  36.0882688
  42.8252803  17.6504816  35.4504953  42.5337611  18.0134797  36.2868414
  42.2124934  16.9371825  35.2718285  44.0248485  15.2157696  27.9707524
  44.8595377  15.6547500  28.1345084  44.1607614  14.7396349  27.1515769
  41.0739991  12.7737431  33.9185011  41.5494113  12.9665077  33.1103863
  40.1505557  12.8296617  33.6728395  27.9623498  13.9361598  23.5016090
  27.7169540  13.0323928  23.6996300  28.1319412  13.9378749  22.5595568
  35.6520208   4.8085275  32.8840845  36.1702151   5.5446302  32.5587334
  35.2975340   5.1149268  33.7187604  27.2319145   9.6689956  21.0002251
  26.5388390   9.7434311  20.3442287  26.9870897   8.9050300  21.5223768
  39.7741660   9.6503191  32.1513317  40.7259083   9.7501289  32.1725541
  39.6045111   8.8581460  32.6611401  37.7956040   6.7358774  32.3372718
  37.2005972   7.0163787  31.6419206  37.5105736   7.2252675  33.1089459
  39.5551547  20.0047572  18.0579298  39.4765178  19.6707435  18.9515056
  40.3761214  20.4969340  18.0570770  42.2529738  12.8709311  31.2655617
  42.2206058  11.9325312  31.4515300  42.8630362  12.9493348  30.5321441
  34.0913069  11.7405364  17.3082821  35.0372174  11.6111572  17.3771239
  33.7127314  11.0020026  17.7852249  42.4024226   9.6620354  31.3113900
  41.8863275   8.8778811  31.1243829  43.2864175   9.3339071  31.4760419
  40.0634953   3.4061370  27.2709712  39.8659774   3.0976458  28.1553044
  40.6734659   4.1323009  27.4007642  48.0706288  13.9325318  30.4061653
  48.8009676  13.6710606  30.9669357  47.4613233  13.1954040  30.4463721
  46.1521585  12.0733180  31.0036105  45.4254748  11.9389145  30.3952596
  45.7368872  12.3810009  31.8092823  33.9751761  15.7923110  38.7683478
  34.8954771  15.9701709  38.9623524  33.9401344  14.8479155  38.6163177
  32.2755986   9.6655340  17.2437706  31.3687441   9.3688453  17.3200419
  32.5531967   9.3685158  16.3771992  23.1933926  10.9861704  27.6936752
  22.8736711  10.1327012  27.4011126  22.6467355  11.2010282  28.4494720
  26.9713834  13.7024145  31.4106259  27.1899844  14.6341252  31.4294293
  27.3839608  13.3432119  32.1961063  33.8918052   4.2092230  23.3981947
  33.0818780   3.8639315  23.7737193  34.5802469   3.8999774  23.9869559
  35.8208600   3.2870277  25.0206244  36.3739639   3.7065730  25.6796267
  36.0578686   2.3606025  25.0629200  31.8441699   9.2757350  40.8009008
  31.7438426  10.2251707  40.7321099  31.6263241   8.9475589  39.9285078
  31.0454771   6.5242275  17.3849685  31.9073935   6.8497174  17.6445502
  31.2305115   5.7373771  16.8722751  23.0622186  14.6064615  29.6629874
  22.3685658  14.1918568  29.1499828  23.8095177  14.6485152  29.0663293
  39.1987407   5.3970802  24.5284908  38.6186076   6.0555606  24.1462960
  38.9323340   4.5748147  24.1172326  37.6490973   4.7975860  26.7306228
  38.1490752   4.9092394  25.9220547  38.2926581   4.4936912  27.3707037
  31.7072969  12.7054489  39.6174069  31.2240051  13.5054849  39.8237958
  31.7933908  12.7162434  38.6641513  24.9758929  14.5382869  27.5395889
  24.9529617  14.6370556  26.5877772  25.2859565  15.3848020  27.8613055
  28.2245689  15.1660140  34.2213301  29.0438578  15.6604219  34.2448138
  28.4982497  14.2492108  34.1930868  37.9812285   7.5570892  23.5841256
  37.0938140   7.8420543  23.3661451  38.3966274   7.3964656  22.7368533
  41.3326821   7.5817413  27.2995596  42.1087211   8.0713866  27.5720212
  40.6074955   8.0075468  27.7567465  43.7699380   8.2945033  28.3569536
  44.3643871   8.0540768  27.6462844  43.8425964   7.5752163  28.9843072
  37.1255499  17.3215567  17.6789276  37.8291349  17.5265569  18.2946932
  36.4018147  17.8892329  17.9438360  37.9553309  13.0725428  23.7991546
  37.8988510  13.5293980  22.9599179  38.5081651  12.3116113  23.6214389
  41.7658115   8.8615160  24.6241666  41.5095049   8.4611796  25.4549874
  41.1410983   9.5758954  24.4991805  46.0770453  11.6011233  27.1312957
  45.5170011  11.6704423  27.9044519  45.4713956  11.4252218  26.4112454
  39.0342196  17.7598096  19.7287736  39.8687800  17.3279295  19.5465211
  38.8726539  17.5880110  20.6564631  38.6888088  14.2630210  21.0944076
  38.6336892  14.0974481  20.1532520  38.0634143  14.9706242  21.2506265
  23.4780603   9.4998274  34.9205498  24.1239467   8.9897228  35.4092723
  23.2697754  10.2366956  35.4948923  36.0033995  16.5679121  40.4197638
  36.8725155  16.7419774  40.0584273  35.5240747  17.3873538  40.2973368
  31.9984214   3.7638319  20.6729394  31.9862883   4.7080158  20.8297665
  32.8907635   3.5808464  20.3788855  27.8178094   6.6465891  39.0180512
  28.6809556   6.2902696  39.2283837  27.2443505   6.3079786  39.7055916
  47.6626471  28.2767747  29.8242913  48.3004881  28.1574495  29.1206253
  47.5447314  29.2248591  29.8830865  44.4716177  28.2295175  29.7604438
  44.1334689  28.1136240  28.8724973  45.3405945  27.8286341  29.7405444
  40.3302993  30.0830652  25.7501329  39.7667858  29.9920589  24.9817616
  40.2155388  29.2630556  26.2303821  44.9535960  29.3830027  35.7190643
  44.9424601  28.9882825  34.8471147  45.1156600  28.6496100  36.3124415
  45.9102552  33.7501620  21.0615794  45.2590531  34.3355700  20.6749807
  46.7046915  34.2807814  21.1210831  39.8358179  30.8390757  21.4602928
  40.6089055  30.2919744  21.3215804  40.1883578  31.7035006  21.6717389
  41.6743221  32.1667139  34.6669827  41.3833087  33.0712770  34.5516494
  42.3100206  32.2083667  35.3813897  42.5999428  29.5443987  31.2571187
  43.1963001  29.3200010  30.5428150  42.6574400  28.8028733  31.8596635
  42.1724457  26.9983423  19.0921378  42.4249977  26.4764944  18.3304841
  41.2349016  26.8349568  19.1948061  47.2167740  26.0019201  26.8996121
  48.0030829  25.5838624  26.5486538  47.4806444  26.9065293  27.0677769
  47.3877817  31.4392051  21.5984778  46.7523650  31.5126678  22.3105683
  47.0575223  32.0285650  20.9203857  52.6176167  25.9394434  27.8029100
  53.3501339  25.3693651  28.0366929  51.8615522  25.5516035  28.2435605
  41.8920745  28.9011529  21.2945753  41.7757004  28.2256432  21.9626837
  42.0023005  28.4143903  20.4777906  44.2352286  28.3621676  24.9992442
  43.8710494  27.8352297  25.7105364  45.0919402  27.9720145  24.8258927
  50.1401587  19.6516008  32.2623708  49.8084912  20.5211419  32.0384923
  49.5447200  19.3352292  32.9417739  43.8757773  23.3911576  19.9953791
  44.0432176  24.2591812  20.3624262  43.6854942  23.5538857  19.0715080
  46.6333107  31.8528554  31.6619621  46.3333830  32.7553593  31.5535428
  46.2884166  31.5860738  32.5140774  40.0845588  28.3042351  27.6956325
  39.1596084  28.1718565  27.9034017  40.3330001  29.0836571  28.1926268
  50.0330250  24.3711095  29.3417058  49.1247128  24.3026503  29.0475819
  49.9817846  24.8483040  30.1698884  43.8546994  25.8469233  20.9800457
  43.7346619  26.2926284  21.8185938  43.1599583  26.1954551  20.4213996
  41.6153886  38.6172875  24.6290589  41.5377916  39.5680700  24.7079069
  41.0115530  38.2718747  25.2865515  44.1071116  25.7900740  37.2851956
  43.3304450  26.3494660  37.2754820  44.7461679  26.2757523  37.8066826
  51.8991897  22.5727533  31.1194932  51.2566277  22.8660066  30.4734727
  51.3946825  22.4580453  31.9248129  49.5532060  26.3190706  21.8080791
  50.4649916  26.5518093  21.6328489  49.0441707  26.9027750  21.2455870
  42.3617488  28.5986194  36.8469923  43.1032173  29.1371238  36.5704746
  41.6554474  29.2252482  37.0041474  47.8372828  30.7415334  35.4442084
  48.2456184  30.2997745  34.6996716  47.1150090  30.1667962  35.6976277
  44.1903898  25.6787941  32.8175641  45.0365093  26.1027354  32.9610290
  44.1302536  25.0221565  33.5114204  48.1601643  31.3016525  29.1994373
  47.5310505  31.4662239  28.4970441  47.7727305  31.7158134  29.9705337
  52.0390875  32.2370963  26.5538737  51.3541913  32.6169864  26.0035770
  52.1234724  32.8466289  27.2870684  47.3403343  23.3392309  34.4756815
  47.0964275  24.0934370  33.9391090  47.6163274  23.7177657  35.3104062
  49.2941806  29.8830922  33.1534080  49.5058701  30.5262681  32.4768461
  49.2471554  29.0493238  32.6856010  46.8968035  22.4948742  30.0570652
  46.0352514  22.7929996  30.3487390  46.9230470  22.7119141  29.1251685
  43.7129605  31.0390933  26.4644458  44.1767950  31.3178636  25.6749081
  43.4486403  30.1374377  26.2817549  42.6498491  27.1614085  23.2734023
  43.3522534  27.6135129  23.7407950  42.3179119  26.5197904  23.9013916
  41.0978852  25.7525842  37.6485233  40.4677513  26.4342123  37.8820629
  40.9914940  25.6408923  36.7038371  50.4087634  32.7602877  31.3256438
  51.2305078  32.3583064  31.0439119  50.4050037  32.6571111  32.2772553
  38.3438570  25.7842217  25.5334633  37.5469733  25.8960911  26.0518129
  38.1164162  26.1228869  24.6675524  44.1744238  32.3086920  33.4817148
  44.2388670  32.7707328  34.3175320  43.4655161  31.6784285  33.6099458
  43.8892255  33.9755028  23.3496128  43.7537930  34.8206563  23.7780976
  44.4302068  34.1774305  22.5862062  40.3759595  20.0546608  40.0110484
  39.9826540  19.5012806  40.6858128  41.1925735  20.3657186  40.4017001
  37.3421653  31.4930466  23.9224053  37.8546173  32.2873716  24.0729618
  37.9944365  30.7956756  23.8557655  43.2927556  21.4704487  37.6030740
  44.0337269  22.0711640  37.5235203  43.5245479  20.7282124  37.0448783
  38.4368894  26.6560854  35.8808970  38.3222409  25.7546111  36.1816069
  37.5813412  26.9024551  35.5293786  45.5160732  34.5978594  37.4796470
  45.0724586  33.8114973  37.1617375  46.1777945  34.7857745  36.8140361
  40.2747853  36.1274396  32.0057149  40.8255278  35.9991459  31.2334143
  39.4359329  36.4269285  31.6552042  47.6141970  34.8781394  35.5077872
  47.5960445  35.6990275  35.0158141  48.5361890  34.7535469  35.7328013
  44.0715024  32.3925524  36.3501380  44.6043361  31.6313812  36.1200688
  43.5429105  32.0999175  37.0925535  47.2384719  17.4985590  31.8795022
  46.8948988  18.3887231  31.8034132  47.6063681  17.3087247  31.0164607
  47.2035002  27.4894201  20.3867457  46.6881625  28.2598805  20.6255844
  46.9312310  26.8159337  21.0100518  44.7882113  22.3343902  25.4452695
  43.9323709  21.9450752  25.2658334  45.2009064  22.4135862  24.5852481
  46.3181259  19.8690245  29.8444255  45.8146055  19.8320380  29.0312060
  46.6111866  20.7782988  29.9040912  42.5624145  19.9528975  28.8510437
  43.4277142  19.7571783  28.4916326  42.6301654  19.7239326  29.7779794
  52.1769276  30.2426555  22.3220630  51.3998718  29.9037715  21.8775793
  52.8560757  30.2479179  21.6475595  46.9921305  25.3621293  22.2127238
  46.6871440  25.6767442  23.0637381  47.9451747  25.4402713  22.2554571
  45.4367737  31.5211516  23.8620192  44.9089098  30.7864276  23.5493430
  44.9355239  32.2986193  23.6160160  50.4160583  29.7160537  28.9787238
  49.7584257  30.4059798  29.0667367  51.2200982  30.1056969  29.3221225
  40.1686464  22.1831182  26.2226804  40.7430216  21.9606364  25.4899997
  40.7557447  22.2519877  26.9755405  49.2266041  28.0704909  27.0291180
  49.7397923  28.7034901  27.5312890  49.8767265  27.4706105  26.6634540
  40.4956051  24.2135643  20.2422689  39.6593364  24.5510330  20.5631964
  40.3560821  24.0784623  19.3049826  42.4709132  19.0572431  24.9501873
  41.8173544  18.7421449  24.3258488  42.4289606  18.4348172  25.6761696
  43.5820337  29.3391726  16.8655165  42.6747398  29.1080980  17.0646314
  44.0791369  28.5429346  17.0529147  46.4888416  38.0489234  19.7851851
  45.8150114  38.3520930  20.3936809  46.8754238  38.8518314  19.4357308
  45.7046872  25.5454365  29.2749521  44.7869434  25.7669312  29.1171209
  46.1207016  25.6200675  28.4161228  46.4881920  26.9445781  24.4052201
  47.2353739  27.4567178  24.0959323  46.7573510  26.6229833  25.2656595
  44.7608570  29.4404321  21.3879155  43.8519789  29.1563354  21.4851625
  44.7903654  29.8603400  20.5282462  49.9927838  33.0510911  25.1570323
  49.5390165  32.2101821  25.2135513  49.3621804  33.6872309  25.4945103
  48.9360757  23.9802897  26.3870990  48.1983514  23.4680283  26.7181233
  49.1887531  23.5403278  25.5754267  48.4360777  34.8887407  26.0920141
  48.7283751  35.4492465  25.3732507  48.9459397  35.1815968  26.8473300
  49.0372384  16.7579149  26.9812760  49.3431261  15.8976512  26.6938675
  49.7624989  17.3496769  26.7811753  43.3093464  27.0532942  27.4888951
  43.3642074  26.1006778  27.4131427  42.4984666  27.2092381  27.9730249
  44.4584658  30.9813065  18.7267234  44.0204088  30.2648924  18.2672871
  45.1995099  31.2089180  18.1652325  41.2485824  25.6710002  25.2479329
  40.4353690  25.9704172  25.6544522  41.7444818  25.2765690  25.9653812
  43.3994402  35.6667759  27.1813594  43.3570581  35.8928605  26.2522126
  44.3157101  35.4331133  27.3299395  46.8460036  26.1351826  34.0794223
  47.2009424  26.3623299  34.9388689  47.4932167  26.4670203  33.4571479
  52.5757773  29.2570262  24.7843552  52.4375671  29.4471858  23.8564742
  52.2193992  30.0189645  25.2411604  40.7399899  23.2428357  30.8640564
  41.3799278  23.1017116  30.1663528  39.9077429  22.9562871  30.4879166
  52.6027152  31.3246789  29.7954824  53.0363659  31.2322078  30.6437878
  53.3158733  31.3004289  29.1574840  46.3355047  34.9248883  31.3287924
  46.3892070  35.4939819  32.0965640  45.4669829  35.0950768  30.9641962
  37.8242966  26.6873869  23.0535310  36.8940554  26.6258325  23.2705272
  37.9200438  26.1649822  22.2571951  39.2153441  24.6266439  32.8112376
  39.8876494  24.4183801  32.1625025  38.3883227  24.4288525  32.3717608
  53.4642702  31.3670490  32.3287709  53.6578592  32.2716300  32.5746984
  53.3643320  30.9077909  33.1626294  45.1179013  21.2528380  34.8278037
  44.4706928  21.9518330  34.7342513  45.8880028  21.6864524  35.1954285
  48.5257811  31.5177232  37.9028590  48.3743317  31.2887784  36.9858674
  48.5162490  32.4747834  37.9159935  45.2943147  29.0909145  32.8874856
  46.2235207  29.2420305  32.7143824  44.8734177  29.1793166  32.0323503
  44.0931479  33.1159810  30.6573394  43.9542564  32.7478594  31.5299332
  43.3046075  33.6307449  30.4857352  44.6879631  38.2168906  21.9998930
  44.8631386  37.7456949  22.8144553  44.0012419  38.8434672  22.2280191
  45.6436694  32.4941412  28.0462232  45.3086527  32.4542182  28.9419882
  45.1440640  31.8286128  27.5732642  39.6180938  27.9009042  33.5714813
  39.4800736  27.1689281  34.1726352  40.5285861  27.8117942  33.2899001
  48.5795886  29.8397447  18.3199291  47.9625056  29.1144275  18.2232344
  48.1112374  30.6006807  17.9766366  42.2463239  27.6129002  33.0598493
  42.9562857  26.9722194  33.0185111  42.2032547  27.8641896  33.9824673
  50.2350017  34.5496355  35.9805072  50.1762563  33.8655575  35.3135655
  50.6369536  35.2915345  35.5285698  40.9592173  24.5994220  34.8794132
  40.4229530  24.1484958  35.5315728  40.3708881  24.7340128  34.1364596
  39.2540716  41.3658269  28.7738791  39.4937314  41.9976793  29.4517809
  38.4109913  41.0146309  29.0604150  40.3694431  24.0582871  17.4420596
  39.4923898  23.9371672  17.0782842  40.8452185  23.2668949  17.1899484
  50.2367425  32.5135939  34.2119051  49.3494203  32.1761861  34.3345450
  50.8065976  31.7818970  34.4487817  36.6931294  23.7350227  31.9647127
  36.6089483  23.1275897  31.2297536  35.8714000  24.2259246  31.9656623
  43.7668578  37.1737391  31.1780295  43.6938749  37.9792363  31.6899599
  43.3245971  37.3729357  30.3528316  43.5558358  36.4109161  24.6883116
  42.7725879  36.9530841  24.7821341  44.2551103  36.9283141  25.0877357
  46.8655008  22.2203791  27.3317322  47.3623707  21.4673753  27.0118392
  46.0941989  22.2568107  26.7660531  54.7184765  27.9244156  28.9735613
  54.7074641  28.8068872  28.6029546  53.8502144  27.5715707  28.7790150
  46.2267261  37.0724225  33.3338453  46.9395234  37.7071690  33.2614355
  45.7357290  37.1688091  32.5178455  47.9484788  30.9775478  24.9055745
  47.0141067  31.0976940  24.7360449  48.1261457  30.0747945  24.6415755
  43.4489976  24.3621174  27.0589006  43.0787764  23.8092214  27.7469912
  43.9449069  23.7579307  26.5064006  51.3357340  26.8192797  25.4405779
  51.8017792  27.6520789  25.3666082  51.7864840  26.3537779  26.1451038
  41.2779175  34.8218669  34.1544024  41.9788634  35.4555152  34.3073418
  40.8074290  35.1633400  33.3939663  49.4033571  33.1636619  22.4391931
  49.6793415  33.0493213  23.3485805  48.5338070  32.7654103  22.4004104
  49.3074002  19.1873384  29.4796680  48.3937082  19.4177611  29.6478887
  49.7367104  19.2711828  30.3310713  49.0780461  27.3763276  31.9796574
  48.4251911  27.6239184  31.3249027  49.4560841  26.5627414  31.6459052
  46.0387635  37.4122969  26.0824745  46.2210029  36.5944625  26.5452497
  46.8620621  37.6290662  25.6449635  46.3729800  36.3391155  23.3439793
  46.9017567  35.8283609  22.7309955  46.6358020  36.0233685  24.2085326
  45.1268034  28.1183087  38.4662612  44.4508671  28.0177217  39.1364987
  45.9495668  27.9622301  38.9298609  39.7285548  37.3906271  26.1037569
  39.0595924  37.8752399  25.6201609  39.5898418  37.6375492  27.0180948
  43.8690817  39.4250015  32.7020228  44.4209125  39.5881636  33.4669313
  44.2097010  40.0154453  32.0300252  38.8455310  21.7725165  33.3042112
  38.9096637  22.6339995  32.8919510  38.7822430  21.1599166  32.5714471
  38.3207583  23.8448297  36.9515147  38.9479621  23.4625374  37.5652671
  37.4635501  23.6262499  37.3170839  48.7201691  34.2511272  38.5568882
  49.2641595  34.8641230  38.0623837  48.1388536  34.8090851  39.0735895
  47.0059204  37.3731990  29.6883910  46.8810344  36.5721730  29.1794855
  47.6638295  37.8678184  29.1997880  38.6267372  23.7280723  28.8661050
  37.9053958  24.3416690  28.7268523  39.4160628  24.2638488  28.7877696
  49.0694112  35.1741010  31.3163460  48.1224448  35.0546362  31.2441787
  49.4176886  34.2863508  31.3989721  41.4293686  21.0635149  35.1401702
  41.9528088  21.3097446  35.9028011  41.2106019  21.8955184  34.7204839
  46.0740546  34.9693727  27.5167812  45.9265508  34.0410434  27.6975382
  46.8994039  34.9913817  27.0324887  39.9402790  23.6211794  23.3748304
  40.2798863  24.1497715  22.6526913  40.3874911  23.9592200  24.1506871
  49.6774668  35.7922285  28.6032685  50.6021215  35.5865147  28.4657136
  49.5089971  35.5438686  29.5122026  42.6346231  22.0048844  32.8251372
  42.2943051  21.2056657  33.2272052  41.9285237  22.3050555  32.2528205
  43.2862703  19.0898157  31.2778695  44.1088772  18.6158635  31.1557586
  43.5300766  19.8688641  31.7777382  41.9270937  22.1186415  21.5741597
  42.6479300  22.4967668  21.0705314  41.3036241  22.8375292  21.6776575
  46.0702060  22.8231564  22.5099929  46.2865674  23.7056202  22.2088757
  45.5896127  22.4317778  21.7805571  40.8101281  25.7817277  29.0870674
  40.6645862  26.0957580  29.9794955  40.3326485  26.4002178  28.5341572
  42.6697664  22.7719825  29.1351563  42.6559233  21.8760919  28.7983861
  43.3870092  22.7790489  29.7689849  44.5223795  23.2057166  31.1804691
  44.2641573  24.1274236  31.1789021  43.9908835  22.8087600  31.8705155
  49.4669984  36.3107953  23.9594776  49.6406861  35.7454375  23.2068629
  49.9598875  37.1108848  23.7774266  42.0734560  21.6534206  24.4039134
  42.1950471  20.7250852  24.6030021  41.7836603  21.6672892  23.4917449
  44.9425751  19.3389116  27.5405853  44.9647448  19.4028449  26.5857833
  45.3593810  18.4993625  27.7346360  55.3209375  29.0744376  25.5785076
  55.7640521  28.3251701  25.1804199  54.4435885  29.0654512  25.1958808
  50.4545156  35.6274717  21.0591675  51.1496061  36.2481410  21.2778989
  50.7968306  34.7770068  21.3344052  52.3536579  33.0774423  22.5879005
  52.8787904  33.4161695  21.8628325  52.2658932  32.1421438  22.4042140
  44.0156628  36.9908496  34.7168882  44.3243755  36.7457643  35.5891581
  44.8132110  37.1955135  34.2287752  44.0377240  39.1446406  26.9474258
  43.5982230  38.6522785  27.6407115  44.7885357  38.6019374  26.7066334
  41.5575640  23.1666203  38.6129066  41.6063795  24.0428326  38.2306836
  42.0998154  22.6243596  38.0400709  52.0430486  33.7107326  37.8930203
  51.2526029  33.6931465  37.3534703  51.8063840  34.2495620  38.6479240
  52.1628361  30.5599793  35.2062932  52.2126365  30.3949800  36.1478455
  52.0542284  29.6927052  34.8160813  41.0464619  33.2388338  22.4955021
  41.1952740  33.9223803  21.8421693  41.8531063  33.2193428  23.0104476
  49.4532123  26.5430721  36.5222238  50.3541986  26.4037186  36.2306236
  49.5280097  26.7085176  37.4620416  43.7874928  23.9197575  35.3675425
  42.9178238  24.2131141  35.0958013  44.0234409  24.5038020  36.0882688
  53.6646557  32.9796734  35.4504953  53.3731366  33.3426715  36.2868414
  53.0518689  32.2663742  35.2718285  54.8642240  30.5449614  27.9707524
  55.6989131  30.9839418  28.1345084  55.0001369  30.0688267  27.1515769
  51.9133746  28.1029349  33.9185011  52.3887867  28.2956995  33.1103863
  50.9899311  28.1588535  33.6728395  38.8017252  29.2653516  23.5016090
  38.5563294  28.3615846  23.6996300  38.9713167  29.2670666  22.5595568
  46.4913962  20.1377192  32.8840845  47.0095906  20.8738219  32.5587334
  46.1369095  20.4441186  33.7187604  38.0712900  24.9981874  21.0002251
  37.3782145  25.0726229  20.3442287  37.8264652  24.2342217  21.5223768
  46.7426556  16.5577475  28.4041742  47.0228310  15.8900664  29.0302168
  47.5277163  16.7506571  27.8916406  44.5460025  35.7336469  19.9666768
  43.9733992  36.3526656  19.5137240  45.1192818  36.2835830  20.5006690
  50.6135415  24.9795109  32.1513317  51.5652838  25.0793207  32.1725541
  50.4438865  24.1873377  32.6611401  48.6349794  22.0650692  32.3372718
  48.0399726  22.3455705  31.6419206  48.3499491  22.5544593  33.1089459
  47.7657285  36.0173619  21.0975350  48.6987958  35.9519181  21.3008226
  47.6780497  36.8529886  20.6389883  50.3945301  35.3339489  18.0579298
  50.3158933  34.9999353  18.9515056  51.2154968  35.8261257  18.0570770
  53.0923492  28.2001229  31.2655617  53.0599813  27.2617229  31.4515300
  53.7024116  28.2785265  30.5321441  44.9306823  27.0697282  17.3082821
  45.8765928  26.9403490  17.3771239  44.5521068  26.3311943  17.7852249
  53.2417981  24.9912272  31.3113900  52.7257030  24.2070729  31.1243829
  54.1257929  24.6630989  31.4760419  50.9028708  18.7353288  27.2709712
  50.7053529  18.4268376  28.1553044  51.5128413  19.4614926  27.4007642
  44.8145516  31.1215028  38.7683478  45.7348525  31.2993627  38.9623524
  44.7795099  30.1771073  38.6163177  43.1149740  24.9947258  17.2437706
  42.2081196  24.6980371  17.3200419  43.3925721  24.6977076  16.3771992
  44.7311806  19.5384148  23.3981947  43.9212534  19.1931233  23.7737193
  45.4196223  19.2291691  23.9869559  46.6602354  18.6162194  25.0206244
  47.2133393  19.0357648  25.6796267  46.8972441  17.6897943  25.0629200
  42.6835454  24.6049268  40.8009008  42.5832181  25.5543625  40.7321099
  42.4656996  24.2767507  39.9285078  41.8848525  21.8534193  17.3849685
  42.7467689  22.1789091  17.6445502  42.0698869  21.0665689  16.8722751
  50.0381162  20.7262720  24.5284908  49.4579831  21.3847524  24.1462960
  49.7717094  19.9040064  24.1172326  48.4884728  20.1267777  26.7306228
  48.9884506  20.2384312  25.9220547  49.1320336  19.8228830  27.3707037
  42.5466724  28.0346407  39.6174069  42.0633805  28.8346767  39.8237958
  42.6327663  28.0454352  38.6641513  39.0639443  30.4952058  34.2213301
  39.8832332  30.9896136  34.2448138  39.3376251  29.5784026  34.1930868
  48.8206040  22.8862810  23.5841256  47.9331895  23.1712461  23.3661451
  49.2360029  22.7256573  22.7368533  52.1720576  22.9109331  27.2995596
  52.9480966  23.4005783  27.5720212  51.4468710  23.3367385  27.7567465
  54.6093134  23.6236950  28.3569536  55.2037625  23.3832686  27.6462844
  54.6819718  22.9044081  28.9843072  47.9649253  32.6507485  17.6789276
  48.6685103  32.8557487  18.2946932  47.2411902  33.2184247  17.9438360
  48.7947063  28.4017346  23.7991546  48.7382265  28.8585897  22.9599179
  49.3475406  27.6408031  23.6214389  52.6051869  24.1907078  24.6241666
  52.3488803  23.7903713  25.4549874  51.9804737  24.9050872  24.4991805
  39.9859416  38.3639878  28.8831144  39.8691800  39.3085311  28.7809834
  39.1651862  38.0613440  29.2716943  49.8735950  33.0890014  19.7287736
  50.7081554  32.6571212  19.5465211  49.7120293  32.9172028  20.6564631
  49.5281843  29.5922127  21.0944076  49.4730646  29.4266399  20.1532520
  48.9027898  30.2998160  21.2506265  34.3174358  24.8290192  34.9205498
  34.9633221  24.3189146  35.4092723  34.1091509  25.5658873  35.4948923
  46.8427750  31.8971039  40.4197638  47.7118909  32.0711691  40.0584273
  46.3634501  32.7165456  40.2973368  42.8377968  19.0930236  20.6729394
  42.8256638  20.0372076  20.8297665  43.7301390  18.9100382  20.3788855
  41.0113930  39.0168140  32.0987072  41.9141177  39.0491750  32.4153567
  40.7851300  38.0868591  32.1133408  42.7667532  37.7699127  28.7597151
  41.8163163  37.7700988  28.6461523  43.0700018  37.0231861  28.2433185
  46.6530088  15.6873013  24.9275331  45.8862483  15.1331500  25.0732013
  47.0640792  15.7594882  25.7889482  38.6571849  21.9757809  39.0180512
  39.5203310  21.6194613  39.2283837  38.0837259  21.6371703  39.7055916
  55.3109932  43.5587093  29.7604438  54.9728443  43.4428158  28.8724973
  56.1799700  43.1578258  29.7405444  51.1696747  45.4122570  25.7501329
  50.6061613  45.3212506  24.9817616  51.0549143  44.5922474  26.2303821
  55.7929715  44.7121945  35.7190643  55.7818356  44.3174743  34.8471147
  55.9550354  43.9788017  36.3124415  48.7161179  46.9073761  28.5885549
  49.5082471  46.5664586  28.1731848  48.9557830  47.0168736  29.5087702
  50.6751933  46.1682674  21.4602928  51.4482809  45.6211661  21.3215804
  51.0277332  47.0326924  21.6717389  52.5136976  47.4959057  34.6669827
  52.2226842  48.4004687  34.5516494  53.1493960  47.5375584  35.3813897
  53.4393183  44.8735905  31.2571187  54.0356755  44.6491928  30.5428150
  53.4968154  44.1320651  31.8596635  53.0118211  42.3275340  19.0921378
  53.2643732  41.8056862  18.3304841  52.0742770  42.1641486  19.1948061
  52.7314500  44.2303446  21.2945753  52.6150758  43.5548350  21.9626837
  52.8416760  43.7435820  20.4777906  55.0746041  43.6913594  24.9992442
  54.7104248  43.1644215  25.7105364  55.9313157  43.3012063  24.8258927
  54.7151528  38.7203493  19.9953791  54.8825930  39.5883730  20.3624262
  54.5248697  38.8830775  19.0715080  50.9239342  43.6334269  27.6956325
  49.9989839  43.5010483  27.9034017  51.1723756  44.4128488  28.1926268
  54.6940749  41.1761151  20.9800457  54.5740374  41.6218201  21.8185938
  53.9993337  41.5246468  20.4213996  48.2848154  43.2767543  28.5300114
  48.4140535  43.5302021  29.4439526  47.6045605  43.8695251  28.2104770
  54.9464871  41.1192658  37.2851956  54.1698205  41.6786578  37.2754820
  55.5855434  41.6049441  37.8066826  53.2011243  43.9278111  36.8469923
  53.9425927  44.4663155  36.5704746  52.4948228  44.5544400  37.0041474
  55.0297653  41.0079859  32.8175641  55.8758848  41.4319272  32.9610290
  54.9696290  40.3513483  33.5114204  54.5523359  46.3682850  26.4644458
  55.0161705  46.6470553  25.6749081  54.2880157  45.4666295  26.2817549
  51.4447440  45.9154332  29.4024221  52.0148797  46.3441600  28.7641706
  52.0355552  45.6336917  30.1008407  53.4892245  42.4906003  23.2734023
  54.1916288  42.9427046  23.7407950  53.1572874  41.8489822  23.9013916
  51.9372607  41.0817759  37.6485233  51.3071267  41.7634040  37.8820629
  51.8308695  40.9700841  36.7038371  47.2317579  40.7489555  28.5751157
  46.4416633  41.0047084  28.0991267  47.7228826  41.5637893  28.6803197
  49.1832324  41.1134135  25.5334633  48.3863488  41.2252829  26.0518129
  48.9557917  41.4520787  24.6675524  55.0137992  47.6378838  33.4817148
  55.0782425  48.0999245  34.3175320  54.3048916  47.0076203  33.6099458
  45.5155282  41.0020046  31.0066148  45.7663320  41.8867056  31.2723723
  46.0514830  40.8224647  30.2341239  51.2153349  35.3838525  40.0110484
  50.8220295  34.8304724  40.6858128  52.0319490  35.6949104  40.4017001
  48.1815407  46.8222383  23.9224053  48.6939928  47.6165634  24.0729618
  48.8338120  46.1248674  23.8557655  49.9910292  49.9388140  26.0046807
  50.1676920  50.8606104  25.8167791  50.7867125  49.6246559  26.4341186
  54.1321310  36.7996404  37.6030740  54.8731024  37.4003558  37.5235203
  54.3639233  36.0574042  37.0448783  49.2762648  41.9852772  35.8808970
  49.1616163  41.0838029  36.1816069  48.4207166  42.2316468  35.5293786
  51.1141607  51.4566314  32.0057149  51.6649032  51.3283377  31.2334143
  50.2753083  51.7561203  31.6552042  54.9108778  47.7217441  36.3501380
  55.4437115  46.9605730  36.1200688  54.3822859  47.4291093  37.0925535
  46.1464324  45.1511038  24.6983624  46.9839546  45.5608046  24.4817332
  46.3242592  44.2110480  24.6683818  55.6275867  37.6635819  25.4452695
  54.7717463  37.2742670  25.2658334  56.0402819  37.7427780  24.5852481
  53.4017900  35.2820892  28.8510437  54.2670896  35.0863701  28.4916326
  53.4695408  35.0531244  29.7779794  56.2761491  46.8503434  23.8620192
  55.7482853  46.1156193  23.5493430  55.7748994  47.6278110  23.6160160
  51.0080219  37.5123100  26.2226804  51.5823971  37.2898282  25.4899997
  51.5951201  37.5811795  26.9755405  51.3349806  39.5427561  20.2422689
  50.4987118  39.8802248  20.5631964  51.1954575  39.4076541  19.3049826
  53.3102886  34.3864349  24.9501873  52.6567299  34.0713366  24.3258488
  53.2683360  33.7640089  25.6761696  54.4214091  44.6683644  16.8655165
  53.5141153  44.4372898  17.0646314  54.9185123  43.8721263  17.0529147
  55.6002325  44.7696239  21.3879155  54.6913544  44.4855272  21.4851625
  55.6297408  45.1895318  20.5282462  46.1690495  42.4901753  25.3694357
  45.9714895  41.8971114  24.6445424  45.6137159  42.1853963  26.0870296
  54.1487219  42.3824860  27.4888951  54.2035828  41.4298696  27.4131427
  53.3378421  42.5384299  27.9730249  55.2978412  46.3104983  18.7267234
  54.8597842  45.5940842  18.2672871  56.0388853  46.5381097  18.1652325
  52.0879579  41.0001919  25.2479329  51.2747444  41.2996090  25.6544522
  52.5838573  40.6057608  25.9653812  51.5793653  38.5720275  30.8640564
  52.2193033  38.4309034  30.1663528  50.7471184  38.2854788  30.4879166
  52.3553957  47.8722705  26.9775557  53.1494556  47.3773025  26.7758132
  51.6445650  47.3440568  26.6143262  48.6636721  42.0165787  23.0535310
  47.7334309  41.9550242  23.2705272  48.7594193  41.4941740  22.2571951
  48.5822270  38.5420600  25.6413551  48.8429087  39.4565933  25.5322712
  49.4039442  38.0745042  25.7910164  50.0547195  39.9558357  32.8112376
  50.7270249  39.7475719  32.1625025  49.2276982  39.7580443  32.3717608
  54.9325233  48.4451727  30.6573394  54.7936319  48.0770512  31.5299332
  54.1439829  48.9599367  30.4857352  50.4574692  43.2300960  33.5714813
  50.3194490  42.4981199  34.1726352  51.3679616  43.1409860  33.2899001
  53.0856993  42.9420919  33.0598493  53.7956612  42.3014111  33.0185111
  53.0426301  43.1933814  33.9824673  51.7985927  39.9286137  34.8794132
  51.2623284  39.4776876  35.5315728  51.2102635  40.0632046  34.1364596
  51.2088186  39.3874789  17.4420596  50.3317652  39.2663589  17.0782842
  51.6845939  38.5960867  17.1899484  42.7290326  44.1751948  27.5362103
  43.4161366  43.8613678  26.9483118  42.5738455  45.0793313  27.2629354
  47.5325048  39.0642145  31.9647127  47.4483237  38.4567814  31.2297536
  46.7107755  39.5551163  31.9656623  54.2883731  39.6913091  27.0589006
  53.9181518  39.1384132  27.7469912  54.7842823  39.0871225  26.5064006
  47.7140648  49.6846941  31.0875127  48.2994084  48.9390629  31.2203031
  47.5165486  49.9950898  31.9711791  42.3058302  42.2552542  29.8079570
  42.3442402  41.7216132  30.6016688  41.7998595  41.7287747  29.1890547
  49.6849065  37.1017082  33.3042112  49.7490391  37.9631913  32.8919510
  49.6216185  36.4891084  32.5714471  49.1601337  39.1740215  36.9515147
  49.7873376  38.7917292  37.5652671  48.3029256  38.9554417  37.3170839
  45.9366880  40.9816644  22.8833501  46.2320321  40.0727322  22.8300555
  45.0354916  40.9604383  22.5614504  49.4661127  39.0572640  28.8661050
  48.7447713  39.6708608  28.7268523  50.2554383  39.5930405  28.7877696
  52.2687440  36.3927067  35.1401702  52.7921842  36.6389363  35.9028011
  52.0499774  37.2247102  34.7204839  47.6654721  38.6630741  23.0072826
  47.3367428  37.7828120  22.8247932  48.0194092  38.6078410  23.8949216
  50.7796545  38.9503711  23.3748304  51.1192617  39.4789633  22.6526913
  51.2268665  39.2884117  24.1506871  53.4739985  37.3340762  32.8251372
  53.1336806  36.5348575  33.2272052  52.7678992  37.6342473  32.2528205
  54.1256457  34.4190074  31.2778695  54.9482527  33.9450553  31.1557586
  54.3694521  35.1980558  31.7777382  52.7664692  37.4478333  21.5741597
  53.4873054  37.8259586  21.0705314  52.1429996  38.1667210  21.6776575
  51.6495036  41.1109195  29.0870674  51.5039617  41.4249498  29.9794955
  51.1720240  41.7294095  28.5341572  53.5091419  38.1011743  29.1351563
  53.4952988  37.2052836  28.7983861  54.2263847  38.1082407  29.7689849
  55.3617550  38.5349083  31.1804691  55.1035327  39.4566154  31.1789021
  54.8302590  38.1379518  31.8705155  46.1240698  43.6514539  32.0258335
  45.5794166  44.4274347  32.1578609  47.0020048  43.9985344  31.8677456
  52.9128315  36.9826123  24.4039134  53.0344226  36.0542770  24.6030021
  52.6230357  36.9964809  23.4917449  55.7819505  34.6681034  27.5405853
  55.8041202  34.7320367  26.5857833  56.1987564  33.8285542  27.7346360
  46.9106720  42.7784436  34.9188492  46.1688456  42.9267071  35.5053122
  46.5899464  43.0392701  34.0555241  47.3563334  50.6649864  26.9498887
  48.1821354  50.3653636  26.5697530  47.0057386  49.8957487  27.3988675
  52.3244867  50.0176333  29.0196560  51.7024876  49.3547038  28.7198788
  52.9949734  50.0437465  28.3370208  45.5571939  48.5836191  27.9087820
  44.7203847  48.1558365  27.7271821  45.5295584  48.7768634  28.8458611
  52.3969394  38.4958121  38.6129066  52.4457550  39.3720244  38.2306836
  52.9391909  37.9535514  38.0400709  51.8858374  48.5680256  22.4955021
  52.0346494  49.2515720  21.8421693  52.6924817  48.5485346  23.0104476
  54.6268683  39.2489493  35.3675425  53.7571992  39.5423059  35.0958013
  54.8628163  39.8329938  36.0882688  49.6411007  44.5945434  23.5016090
  49.3957049  43.6907764  23.6996300  49.8106921  44.5962584  22.5595568
  48.9106654  40.3273791  21.0002251  48.2175899  40.4018146  20.3442287
  48.6658406  39.5634135  21.5223768  53.9543495  40.3239176  17.2437706
  53.0474950  40.0272288  17.3200419  54.2319476  40.0268994  16.3771992
  44.8721435  41.6445539  27.6936752  44.5524220  40.7910847  27.4011126
  44.3254863  41.8594117  28.4494720  48.6501343  44.3607980  31.4106259
  48.8687353  45.2925088  31.4294293  49.0627117  44.0015954  32.1961063
  55.5705561  34.8676065  23.3981947  54.7606289  34.5223150  23.7737193
  56.2589978  34.5583609  23.9869559  53.5229208  39.9341186  40.8009008
  53.4225935  40.8835543  40.7321099  53.3050750  39.6059425  39.9285078
  52.7242280  37.1826111  17.3849685  53.5861444  37.5081009  17.6445502
  52.9092624  36.3957607  16.8722751  44.7409695  45.2648451  29.6629874
  44.0473167  44.8502403  29.1499828  45.4882686  45.3068987  29.0663293
  53.3860478  43.3638325  39.6174069  52.9027560  44.1638685  39.8237958
  53.4721417  43.3746269  38.6641513  46.6546438  45.1966704  27.5395889
  46.6317126  45.2954392  26.5877772  46.9647074  46.0431855  27.8613055
  49.3133816  47.2542859  31.6542503  50.2677069  47.2226802  31.5872435
  49.1146339  46.7933483  32.4692729  49.9033198  45.8243975  34.2213301
  50.7226087  46.3188054  34.2448138  50.1770006  44.9075944  34.1930868
  47.6684045  52.7962479  28.6712701  47.5338512  52.0362880  28.1050699
  47.2516107  53.5203379  28.2041490  45.1568112  40.1582109  34.9205498
  45.8026976  39.6481063  35.4092723  44.9485263  40.8950791  35.4948923
  53.6771723  34.4222154  20.6729394  53.6650392  35.3663994  20.8297665
  54.5695144  34.2392299  20.3788855  49.4965603  37.3049726  39.0180512
  50.3597065  36.9486531  39.2283837  48.9231014  36.9663621  39.7055916
  30.7760133   0.2943080  11.3535895  30.6984163   1.2450905  11.4324376
  30.1721777  -0.0511048  12.0110822  28.4146963   3.0428474  15.4984097
  28.6543561   3.6746998  16.1763116  27.5716159   2.6916514  15.7849457
  28.8891795  -0.9323524  12.8282876  28.2202170  -0.4477396  12.3446916
  28.7504665  -0.6854303  13.7426254  33.0297064   1.1020220  19.4265534
  33.5815372   1.2651841  20.1914619  33.3703257   1.6924657  18.7545559
  25.9896537  -0.8559234  15.3958008  25.8551005  -1.6158833  14.8296006
  25.5728599  -0.1318334  14.9286796  29.1465663   0.0410083  15.6076450
  29.0298047   0.9855516  15.5055141  28.3258109  -0.2616355  15.9962249
  30.1720177   0.6938345  18.8232379  31.0747423   0.7261955  19.1398874
  29.9457547  -0.2361204  18.8378714  44.4716179   5.2357298  16.4849744
  44.1334690   5.1198363  15.5970279  45.3405947   4.8348463  16.4650751
  40.3302994   7.0892774  12.4746635  39.7667859   6.9982711  11.7062923
  40.2155389   6.2692679  12.9549128  44.9535962   6.3892150  22.4435950
  44.9424602   5.9944948  21.5716454  45.1156601   5.6558222  23.0369721
  37.8767426   8.5843966  15.3130856  38.6688718   8.2434791  14.8977155
  38.1164076   8.6938941  16.2333009  45.9102553  10.7563742   7.7861100
  45.2590533  11.3417823   7.3995114  46.7046916  11.2869937   7.8456138
  39.8358180   7.8452879   8.1848235  40.6089056   7.2981866   8.0461110
  40.1883579   8.7097129   8.3962696  41.6743223   9.1729262  21.3915134
  41.3833089  10.0774892  21.2761800  42.3100207   9.2145789  22.1059203
  42.5999430   6.5506110  17.9816494  43.1963002   6.3262132  17.2673456
  42.6574401   5.8090856  18.5841941  41.8920747   5.9073651   8.0191059
  41.7757005   5.2318555   8.6872144  42.0023007   5.4206025   7.2023213
  44.2352288   5.3683798  11.7237749  43.8710495   4.8414419  12.4350670
  45.0919404   4.9782268  11.5504234  46.6333108   8.8590677  18.3864928
  46.3333831   9.7615716  18.2780735  46.2884167   8.5922860  19.2386080
  40.0845589   5.3104474  14.4201632  39.1596086   5.1780688  14.6279324
  40.3330002   6.0898693  14.9171574  37.4454400   4.9537747  15.2545421
  37.5746781   5.2072226  16.1684833  36.7651852   5.5465455  14.9350076
  41.6153888  15.6234997  11.3535895  41.5377917  16.5742822  11.4324376
  41.0115531  15.2780870  12.0110822  42.3617490   5.6048316  23.5715229
  43.1032174   6.1433360  23.2950053  41.6554475   6.2314605  23.7286781
  47.8372829   7.7477457  22.1687391  48.2456185   7.3059867  21.4242023
  47.1150091   7.1730084  22.4221584  48.1601644   8.3078647  15.9239680
  47.5310506   8.4724361  15.2215747  47.7727306   8.7220257  16.6950644
  52.0390876   9.2433085  13.2784043  51.3541914   9.6231986  12.7281077
  52.1234725   9.8528412  14.0115991  43.7129606   8.0453055  13.1889765
  44.1767951   8.3240758  12.3994387  43.4486404   7.1436500  13.0062855
  40.6053687   7.5924537  16.1269528  41.1755044   8.0211805  15.4887012
  41.1961799   7.3107122  16.8253714  36.3923826   2.4259760  15.2996463
  35.6022880   2.6817289  14.8236574  36.8835073   3.2408098  15.4048504
  50.4087635   9.7665000  18.0501744  51.2305079   9.3645187  17.7684426
  50.4050038   9.6633234  19.0017860  38.3438571   2.7904340  12.2579940
  37.5469734   2.9023034  12.7763436  38.1164163   3.1290992  11.3920831
  44.1744239   9.3149043  20.2062455  44.2388671   9.7769450  21.0420627
  43.4655163   8.6846408  20.3344765  34.6761529   2.6790251  17.7311454
  34.9269567   3.5637261  17.9969030  35.2121077   2.4994852  16.9586546
  43.8892256  10.9817150  10.0741435  43.7537931  11.8268686  10.5026283
  44.4302069  11.1836428   9.3107369  37.3421654   8.4992588  10.6469360
  37.8546174   9.2935839  10.7974925  37.9944367   7.8018879  10.5802962
  39.1516539  11.6158345  12.7292113  39.3283167  12.5376309  12.5413097
  39.9473372  11.3016764  13.1586493  38.4368895   3.6622977  22.6054276
  38.3222410   2.7608234  22.9061375  37.5813413   3.9086673  22.2539093
  45.5160733  11.6040717  24.2041777  45.0724587  10.8177095  23.8862682
  46.1777946  11.7919867  23.5385668  40.2747854  13.1336518  18.7302456
  40.8255279  13.0053582  17.9579450  39.4359330  13.4331407  18.3797348
  47.6141971  11.8843517  22.2323178  47.5960446  12.7052398  21.7403448
  48.5361891  11.7597592  22.4573320  44.0715025   9.3987646  23.0746687
  44.6043362   8.6375934  22.8445995  43.5429106   9.1061298  23.8170841
  35.3070571   6.8281243  11.4228931  36.1445793   7.2378251  11.2062638
  35.4848838   5.8880685  11.3929125  45.4367738   8.5273639  10.5865499
  44.9089099   7.7926398  10.2738736  44.9355241   9.3048315  10.3405467
  50.4160584   6.7222659  15.7032545  49.7584258   7.4121921  15.7912674
  51.2200983   7.1119091  16.0466531  46.4888417  15.0551356   6.5097158
  45.8150116  15.3583053   7.1182116  46.8754239  15.8580437   6.1602615
  49.9927839  10.0573033  11.8815629  49.5390166   9.2163943  11.9380820
  49.3621806  10.6934432  12.2190410  48.4360778  11.8949530  12.8165448
  48.7283752  12.4554587  12.0977813  48.9459399  12.1878091  13.5718607
  35.3296742   4.1671958  12.0939664  35.1321142   3.5741319  11.3690731
  34.7743406   3.8624168  12.8115603  43.3994403  12.6729881  13.9058901
  43.3570582  12.8990727  12.9767433  44.3157102  12.4393256  14.0544702
  52.6027154   8.3308912  16.5200131  53.0363660   8.2384201  17.3683185
  53.3158734   8.3066412  15.8820147  41.5160204   9.5492910  13.7020863
  42.3100803   9.0543230  13.5003438  40.8051896   9.0210773  13.3388569
  46.3355049  11.9311006  18.0533231  46.3892071  12.5001942  18.8210947
  45.4669830  12.1012891  17.6887268  37.8242968   3.6935992   9.7780616
  36.8940556   3.6320447   9.9950578  37.9200439   3.1711945   8.9817257
  53.4642703   8.3732612  19.0533016  53.6578593   9.2778423  19.2992291
  53.3643321   7.9140031  19.8871601  48.5257812   8.5239355  24.6273897
  48.3743318   8.2949907  23.7103980  48.5162491   9.4809956  24.6405242
  45.2943148   6.0971268  19.6120163  46.2235208   6.2482427  19.4389130
  44.8734178   6.1855289  18.7568809  44.0931480  10.1221932  17.3818701
  43.9542566   9.7540717  18.2544639  43.3046076  10.6369572  17.2102658
  44.6879632  15.2231029   8.7244237  44.8631388  14.7519072   9.5389860
  44.0012420  15.8496795   8.9525498  45.6436695   9.5003535  14.7707538
  45.3086528   9.4604305  15.6665188  45.1440641   8.8348251  14.2977949
  39.6180939   4.9071165  20.2960120  39.4800737   4.1751404  20.8971659
  40.5285863   4.8180065  20.0144307  42.2463240   4.6191124  19.7843799
  42.9562858   3.9784316  19.7430418  42.2032548   4.8704019  20.7069980
  50.2350018  11.5558478  22.7050378  50.1762565  10.8717698  22.0380961
  50.6369537  12.2977468  22.2531004  39.2540717  18.3720391  15.4984097
  39.4937316  19.0038916  16.1763116  38.4109914  18.0208431  15.7849457
  50.2367426   9.5198062  20.9364358  49.3494205   9.1823983  21.0590757
  50.8065977   8.7881093  21.1733123  31.8896573   5.8522153  14.2607409
  32.5767613   5.5383883  13.6728425  31.7344702   6.7563518  13.9874661
  43.7668579  14.1799514  17.9025601  43.6938751  14.9854485  18.4144906
  43.3245972  14.3791480  17.0773623  43.5558359  13.4171284  11.4128423
  42.7725881  13.9592964  11.5066647  44.2551104  13.9345264  11.8122664
  46.2267263  14.0786348  20.0583760  46.9395235  14.7133813  19.9859661
  45.7357291  14.1750214  19.2423762  47.9484790   7.9837601  11.6301052
  47.0141068   8.1039063  11.4605756  48.1261458   7.0810067  11.3661061
  41.2779176  11.8280791  20.8789331  41.9788636  12.4617274  21.0318725
  40.8074291  12.1695523  20.1184970  46.0387636  14.4185092  12.8070051
  46.2210031  13.6006748  13.2697804  46.8620622  14.6352784  12.3694941
  46.3729802  13.3453277  10.0685100  46.9017568  12.8345732   9.4555262
  46.6358021  13.0295807  10.9330633  45.1268035   5.1245210  25.1907918
  44.4508672   5.0239339  25.8610293  45.9495669   4.9684424  25.6543915
  36.8746894  11.3617146  17.8120433  37.4600331  10.6160834  17.9448338
  36.6771733  11.6721103  18.6957097  39.7285549  14.3968394  12.8282876
  39.0595925  14.8814521  12.3446916  39.5898419  14.6437614  13.7426254
  31.4664549   3.9322747  16.5324877  31.5048649   3.3986337  17.3261995
  30.9604842   3.4057952  15.9135854  43.8690818  16.4312137  19.4265534
  44.4209126  16.5943759  20.1914619  44.2097012  17.0216575  18.7545559
  35.0973127   2.6586849   9.6078808  35.3926568   1.7497527   9.5545862
  34.1961162   2.6374588   9.2859810  47.0059205  14.3794113  16.4129216
  46.8810345  13.5783853  15.9040162  47.6638296  14.8740306  15.9243186
  49.0694114  12.1803133  18.0408766  48.1224449  12.0608484  17.9687093
  49.4176887  11.2925631  18.1235028  46.0740547  11.9755849  14.2413119
  45.9265509  11.0472557  14.4220689  46.8994041  11.9975940  13.7570194
  49.6774669  12.7984408  15.3277991  50.6021216  12.5927269  15.1902443
  49.5089972  12.5500809  16.2367333  49.4669985  13.3170075  10.6840083
  49.6406863  12.7516498   9.9313935  49.9598876  14.1170970  10.5019573
  35.2846945   5.3284744  18.7503642  34.7400413   6.1044552  18.8823916
  36.1626295   5.6755549  18.5922763  36.0712967   4.4554641  21.6433799
  35.3294703   4.6037276  22.2298429  35.7505711   4.7162906  20.7800548
  44.0156629  13.9970619  21.4414189  44.3243756  13.7519766  22.3136888
  44.8132111  14.2017257  20.9533059  44.0377241  16.1508529  13.6719565
  43.5982232  15.6584907  14.3652422  44.7885358  15.6081496  13.4311640
  36.5169580  12.3420069  13.6744193  37.3427600  12.0423841  13.2942837
  36.1663632  11.5727692  14.1233982  41.4851114  11.6946538  15.7441867
  40.8631123  11.0317243  15.4444095  42.1555981  11.7207669  15.0615515
  34.7178185  10.2606396  14.6333127  33.8810094   9.8328570  14.4517128
  34.6901831  10.4538839  15.5703918  52.0430487  10.7169449  24.6175510
  51.2526030  10.6993588  24.0780009  51.8063841  11.2557743  25.3724546
  41.0464621  10.2450461   9.2200327  41.1952741  10.9285925   8.5667000
  41.8531064  10.2255551   9.7349783  53.6646559   9.9858857  22.1750260
  53.3731367  10.3488837  23.0113721  53.0518690   9.2725865  21.9963592
  38.8017253   6.2715639  10.2261396  38.5563295   5.3677969  10.4241606
  38.9713168   6.2732789   9.2840874  44.5460026  12.7398591   6.6912075
  43.9733993  13.3588779   6.2382547  45.1192820  13.2897953   7.2251997
  44.8145517   8.1277150  25.4928784  45.7348527   8.3055749  25.6868831
  44.7795100   7.1833196  25.3408483  34.0327682   3.3215744  14.4182059
  33.7130466   2.4681052  14.1256433  33.4861110   3.5364322  15.1740026
  37.8107590   6.0378185  18.1351565  38.0293599   6.9695293  18.1539599
  38.2233363   5.6786159  18.9206369  33.9015942   6.9418655  16.3875180
  33.2079414   6.5272608  15.8745135  34.6488933   6.9839192  15.7908599
  42.5466725   5.0408530  26.3419376  42.0633807   5.8408890  26.5483265
  42.6327664   5.0516474  25.3886820  35.8152685   6.8736909  14.2641195
  35.7923373   6.9724596  13.3123078  36.1253321   7.7202060  14.5858361
  38.4740062   8.9313064  18.3787810  39.4283316   8.8997007  18.3117741
  38.2752586   8.4703688  19.1938036  39.0639445   7.5014180  20.9458607
  39.8832334   7.9958259  20.9693445  39.3376252   6.5846148  20.9176175
  36.8290291  14.4732684  15.3958008  36.6944759  13.7133085  14.8296006
  36.4122354  15.1973584  14.9286796  39.9859417  15.3702001  15.6076450
  39.8691801  16.3147433  15.5055141  39.1651863  15.0675562  15.9962249
  34.3174359   1.8352314  21.6450804  34.9633222   1.3251268  22.1338030
  34.1091510   2.5720996  22.2194230  46.8427751   8.9033162  27.1442945
  47.7118911   9.0773814  26.7829580  46.3634503   9.7227578  27.0218674
  41.0113931  16.0230263  18.8232379  41.9141178  16.0553873  19.1398874
  40.7851301  15.0930714  18.8378714  42.7667533  14.7761249  15.4842457
  41.8163164  14.7763111  15.3706830  43.0700019  14.0293984  14.9678492
  55.3109933  20.5649216  16.4849744  54.9728445  20.4490280  15.5970279
  56.1799701  20.1640381  16.4650751  51.1696749  22.4184692  12.4746635
  50.6061614  22.3274629  11.7062923  51.0549144  21.5984597  12.9549128
  55.7929716  21.7184067  22.4435950  55.7818357  21.3236866  21.5716454
  55.9550356  20.9850140  23.0369721  48.7161181  23.9135884  15.3130856
  49.5082473  23.5726708  14.8977155  48.9557831  24.0230859  16.2333009
  50.6751935  23.1744797   8.1848235  51.4482811  22.6273784   8.0461110
  51.0277333  24.0389046   8.3962696  52.5136977  24.5021179  21.3915134
  52.2226843  25.4066810  21.2761800  53.1493962  24.5437707  22.1059203
  53.4393184  21.8798028  17.9816494  54.0356756  21.6554050  17.2673456
  53.4968156  21.1382773  18.5841941  52.7314501  21.2365569   8.0191059
  52.6150759  20.5610472   8.6872144  52.8416761  20.7497943   7.2023213
  55.0746042  20.6975716  11.7237749  54.7104249  20.1706337  12.4350670
  55.9313158  20.3074185  11.5504234  50.9239344  20.6396392  14.4201632
  49.9989840  20.5072606  14.6279324  51.1723757  21.4190611  14.9171574
  48.2848155  20.2829665  15.2545421  48.4140536  20.5364144  16.1684833
  47.6045606  20.8757373  14.9350076  52.4547642  30.9526915  11.3535895
  52.3771672  31.9034740  11.4324376  51.8509286  30.6072788  12.0110822
  54.9464872  18.1254781  24.0097262  54.1698206  18.6848701  24.0000127
  55.5855435  18.6111563  24.5312132  53.2011244  20.9340234  23.5715229
  53.9425929  21.4725278  23.2950053  52.4948230  21.5606523  23.7286781
  55.0297654  18.0141981  19.5420948  55.8758849  18.4381395  19.6855597
  54.9696292  17.3575605  20.2359511  54.5523360  23.3744973  13.1889765
  55.0161706  23.6532676  12.3994387  54.2880158  22.4728418  13.0062855
  51.4447441  22.9216455  16.1269528  52.0148798  23.3503723  15.4887012
  52.0355553  22.6399039  16.8253714  53.4892246  19.4968125   9.9979330
  54.1916290  19.9489169  10.4653256  53.1572875  18.8551944  10.6259223
  51.9372608  18.0879882  24.3730539  51.3071268  18.7696163  24.6065936
  51.8308696  17.9762964  23.4283677  47.2317580  17.7551678  15.2996463
  46.4416634  18.0109207  14.8236574  47.7228828  18.5700016  15.4048504
  49.1832326  18.1196257  12.2579940  48.3863489  18.2314952  12.7763436
  48.9557918  18.4582910  11.3920831  55.0137993  24.6440961  20.2062455
  55.0782426  25.1061368  21.0420627  54.3048917  24.0138325  20.3344765
  45.5155283  18.0082169  17.7311454  45.7663322  18.8929178  17.9969030
  46.0514832  17.8286770  16.9586546  54.7286011  26.3109068  10.0741435
  54.5931686  27.1560604  10.5026283  55.2695823  26.5128346   9.3107369
  51.2153351  12.3900648  26.7355790  50.8220296  11.8366846  27.4103434
  52.0319491  12.7011226  27.1262308  48.1815408  23.8284506  10.6469360
  48.6939929  24.6227756  10.7974925  48.8338121  23.1310797  10.5802962
  49.9910293  26.9450262  12.7292113  50.1676921  27.8668227  12.5413097
  50.7867127  26.6308682  13.1586493  54.1321312  13.8058527  24.3276047
  54.8731025  14.4065680  24.2480509  54.3639234  13.0636165  23.7694089
  49.2762650  18.9914894  22.6054276  49.1616165  18.0900151  22.9061375
  48.4207167  19.2378591  22.2539093  51.1141609  28.4628436  18.7302456
  51.6649034  28.3345500  17.9579450  50.2753084  28.7623325  18.3797348
  54.9108780  24.7279564  23.0746687  55.4437116  23.9667852  22.8445995
  54.3822861  24.4353216  23.8170841  46.1464325  22.1573160  11.4228931
  46.9839547  22.5670169  11.2062638  46.3242593  21.2172603  11.3929125
  53.4017901  12.2883015  15.5755743  54.2670898  12.0925823  15.2161633
  53.4695410  12.0593367  16.5025100  56.2761492  23.8565556  10.5865499
  55.7482854  23.1218316  10.2738736  55.7748995  24.6340233  10.3405467
  51.0080220  14.5185223  12.9472110  51.5823972  14.2960404  12.2145303
  51.5951202  14.5873917  13.7000712  46.1690496  19.4963876  12.0939664
  45.9714896  18.9033236  11.3690731  45.6137160  19.1916086  12.8115603
  54.1487220  19.3886982  14.2134257  54.2035830  18.4360819  14.1376734
  53.3378422  19.5446421  14.6975556  52.0879580  18.0064042  11.9724636
  51.2747445  18.3058212  12.3789828  52.5838574  17.6119731  12.6899118
  54.2388158  28.0021799  13.9058901  54.1964337  28.2282645  12.9767433
  55.1550857  27.7685173  14.0544702  51.5793655  15.5782397  17.5885871
  52.2193034  15.4371157  16.8908834  50.7471185  15.2916911  17.2124473
  52.3553959  24.8784828  13.7020863  53.1494557  24.3835148  13.5003438
  51.6445651  24.3502691  13.3388569  48.6636722  19.0227910   9.7780616
  47.7334310  18.9612365   9.9950578  48.7594194  18.5003862   8.9817257
  48.5822271  15.5482722  12.3658858  48.8429088  16.4628056  12.2568018
  49.4039443  15.0807165  12.5155471  50.0547196  16.9620480  19.5357682
  50.7270250  16.7537842  18.8870331  49.2276983  16.7642566  19.0962915
  54.9325235  25.4513850  17.3818701  54.7936320  25.0832634  18.2544639
  54.1439831  25.9661489  17.2102658  55.5273386  30.5522946   8.7244237
  55.7025142  30.0810990   9.5389860  54.8406175  31.1788713   8.9525498
  50.4574694  20.2363083  20.2960120  50.3194492  19.5043321  20.8971659
  51.3679617  20.1471983  20.0144307  53.0856994  19.9483042  19.7843799
  53.7956613  19.3076234  19.7430418  53.0426302  20.1995937  20.7069980
  51.7985928  16.9348260  21.6039439  51.2623285  16.4838998  22.2561035
  51.2102637  17.0694169  20.8609903  50.0934472  33.7012309  15.4984097
  50.3331070  34.3330833  16.1763116  49.2503668  33.3500349  15.7849457
  42.7290327  21.1814071  14.2607409  43.4161367  20.8675801  13.6728425
  42.5738456  22.0855436  13.9874661  47.5325050  16.0704267  18.6892433
  47.4483238  15.4629937  17.9542843  46.7107756  16.5613286  18.6901929
  54.6062334  29.5091432  17.9025601  54.5332505  30.3146403  18.4144906
  54.1639727  29.7083397  17.0773623  54.3952113  28.7463202  11.4128423
  53.6119635  29.2884882  11.5066647  55.0944858  29.2637181  11.8122664
  54.2883732  16.6975214  13.7834313  53.9181520  16.1446254  14.4715218
  54.7842825  16.0933347  13.2309313  52.1172931  27.1572709  20.8789331
  52.8182390  27.7909192  21.0318725  51.6468046  27.4987441  20.1184970
  47.7140649  26.6909064  17.8120433  48.2994086  25.9452752  17.9448338
  47.5165487  27.0013021  18.6957097  50.5679304  29.7260311  12.8282876
  49.8989679  30.2106439  12.3446916  50.4292174  29.9729532  13.7426254
  42.3058303  19.2614664  16.5324877  42.3442403  18.7278255  17.3261995
  41.7998596  18.7349870  15.9135854  54.7084573  31.7604055  19.4265534
  55.2602881  31.9235676  20.1914619  55.0490766  32.3508493  18.7545559
  49.6849066  14.1079205  20.0287419  49.7490392  14.9694036  19.6164817
  49.6216186  13.4953206  19.2959777  49.1601338  16.1802337  23.6760453
  49.7873377  15.7979415  24.2897977  48.3029257  15.9616539  24.0416146
  45.9366881  17.9878766   9.6078808  46.2320322  17.0789445   9.5545862
  45.0354917  17.9666506   9.2859810  49.4661128  16.0634763  15.5906357
  48.7447714  16.6770731  15.4513830  50.2554384  16.5992528  15.5123003
  52.2687442  13.3989190  21.8647008  52.7921843  13.6451486  22.6273318
  52.0499775  14.2309224  21.4450146  47.6654723  15.6692864   9.7318133
  47.3367429  14.7890243   9.5493239  48.0194093  15.6140533  10.6194522
  50.7796546  15.9565834  10.0993611  51.1192618  16.4851755   9.3772219
  51.2268666  16.2946240  10.8752177  53.4739987  14.3402885  19.5496679
  53.1336807  13.5410698  19.9517359  52.7678993  14.6404595  18.9773512
  54.1256458  11.4252197  18.0024002  54.9482528  10.9512675  17.8802892
  54.3694522  12.2042681  18.5022688  51.6495037  18.1171318  15.8115980
  51.5039618  18.4311621  16.7040262  51.1720241  18.7356218  15.2586879
  53.5091420  15.1073866  15.8596870  53.4952989  14.2114959  15.5229168
  54.2263848  15.1144529  16.4935156  55.3617551  15.5411206  17.9049997
  55.1035329  16.4628277  17.9034328  54.8302591  15.1441640  18.5950462
  46.1240699  20.6576662  18.7503642  45.5794167  21.4336470  18.8823916
  47.0020049  21.0047467  18.5922763  46.9106721  19.7846558  21.6433799
  46.1688457  19.9329194  22.2298429  46.5899466  20.0454824  20.7800548
  54.8550384  29.3262537  21.4414189  55.1637510  29.0811683  22.3136888
  55.6525866  29.5309175  20.9533059  54.8770996  31.4800446  13.6719565
  54.4375986  30.9876825  14.3652422  55.6279113  30.9373414  13.4311640
  47.3563335  27.6711987  13.6744193  48.1821355  27.3715759  13.2942837
  47.0057387  26.9019609  14.1233982  52.3244868  27.0238455  15.7441867
  51.7024877  26.3609160  15.4444095  52.9949735  27.0499587  15.0615515
  45.5571940  25.5898314  14.6333127  44.7203848  25.1620488  14.4517128
  45.5295585  25.7830757  15.5703918  52.3969396  15.5020243  25.3374373
  52.4457551  16.3782366  24.9552142  52.9391910  14.9597636  24.7646016
  51.8858375  25.5742379   9.2200327  52.0346495  26.2577843   8.5667000
  52.6924818  25.5547469   9.7349783  54.6268684  16.2551616  22.0920731
  53.7571993  16.5485182  21.8203320  54.8628164  16.8392061  22.8127995
  49.6411008  21.6007556  10.2261396  49.3957050  20.6969886  10.4241606
  49.8106923  21.6024707   9.2840874  48.9106656  17.3335914   7.7247558
  48.2175900  17.4080269   7.0687594  48.6658407  16.5696257   8.2469075
  55.3853781  28.0690509   6.6912075  54.8127748  28.6880696   6.2382547
  55.9586574  28.6189871   7.2251997  44.8721437  18.6507662  14.4182059
  44.5524221  17.7972970  14.1256433  44.3254865  18.8656240  15.1740026
  48.6501344  21.3670103  18.1351565  48.8687354  22.2987210  18.1539599
  49.0627118  21.0078077  18.9206369  53.5229209  16.9403308  27.5254314
  53.4225936  17.8897665  27.4566405  53.3050751  16.6121547  26.6530384
  44.7409697  22.2710573  16.3875180  44.0473168  21.8564526  15.8745135
  45.4882688  22.3131110  15.7908599  53.3860479  20.3700447  26.3419376
  52.9027561  21.1700807  26.5483265  53.4721419  20.3808392  25.3886820
  46.6546439  22.2028827  14.2641195  46.6317127  22.3016514  13.3123078
  46.9647076  23.0493978  14.5858361  49.3133817  24.2604982  18.3787810
  50.2677071  24.2288924  18.3117741  49.1146341  23.7995606  19.1938036
  49.9033199  22.8306098  20.9458607  50.7226088  23.3250177  20.9693445
  50.1770007  21.9138066  20.9176175  47.6684046  29.8024601  15.3958008
  47.5338514  29.0425002  14.8296006  47.2516108  30.5265501  14.9286796
  50.8253172  30.6993918  15.6076450  50.7085556  31.6439351  15.5055141
  50.0045618  30.3967480  15.9962249  45.1568113  17.1644232  21.6450804
  45.8026977  16.6543186  22.1338030  44.9485264  17.9012913  22.2194230
  51.8507686  31.3522180  18.8232379  52.7534932  31.3845791  19.1398874
  51.6245056  30.4222631  18.8378714  53.6061288  30.1053167  15.4842457
  52.6556919  30.1055028  15.3706830  53.9093774  29.3585901  14.9678492
  49.4965604  14.3111849  25.7425819  50.3597066  13.9548654  25.9529143
  48.9231015  13.9725744  26.4301223  53.5684082  36.5105989  14.2607409
  54.2555122  36.1967719  13.6728425  53.4132211  37.4147353  13.9874661
  53.1452058  34.5906582  16.5324877  53.1836158  34.0570173  17.3261995
  52.6392351  34.0641787  15.9135854  56.3965694  40.9190231  14.6333127
  55.5597603  40.4912406  14.4517128  56.3689340  41.1122675  15.5703918
  55.7115191  33.9799579  14.4182059  55.3917975  33.1264887  14.1256433
  55.1648619  34.1948157  15.1740026  55.5803451  37.6002491  16.3875180
  54.8866922  37.1856444  15.8745135  56.3276442  37.6423027  15.7908599
   4.3024853  21.4395668  40.9496099   3.5488562  20.8703066  40.7940104
   4.4372395  21.4058332  41.8966734   0.6673466  22.8803656  41.2462214
   1.5020357  23.3193460  41.4099774   0.8032595  22.4042309  40.4270460
   4.7131269  21.5971277  43.6816344   5.4434657  21.3356566  44.2424047
   4.1038214  20.8599999  43.7218412   2.7946566  19.7379140  44.2790795
   2.0679729  19.6035105  43.6707286   2.3793853  20.0455969  45.0847513
   2.7195433  19.2657193  40.4067648   2.1594991  19.3350382  41.1799210
   2.1138937  19.0898178  39.6867144   4.3051452  35.9413707  43.0997603
   4.9429862  35.8220454  42.3960943   4.1872295  36.8894551  43.1585555
   1.1141158  35.8941135  43.0359128   0.7759670  35.7782200  42.1479663
   1.9830926  35.4932300  43.0160134   2.5527533  41.4147579  34.3370484
   1.9015512  42.0001660  33.9504498   3.3471895  41.9453774  34.3965521
   3.8592720  33.6665161  40.1750811   4.6455810  33.2484584  39.8241228
   4.1231425  34.5711253  40.3432460   4.0302798  39.1038011  34.8739468
   3.3948631  39.1772638  35.5860373   3.7000204  39.6931610  34.1958547
   9.2601147  33.6040394  41.0783790   9.9926319  33.0339611  41.3121619
   8.5040503  33.2161995  41.5190295   0.8777267  36.0267636  38.2747132
   0.5135474  35.4998257  38.9860054   1.7344383  35.6366105  38.1013618
   6.7826568  27.3161968  45.5378398   6.4509893  28.1857379  45.3139613
   6.1872181  26.9998252  46.2172429   3.2758087  39.5174514  44.9374311
   2.9758810  40.4199553  44.8290118   2.9309147  39.2506697  45.7895464
   6.6755231  32.0357054  42.6171749   5.7672108  31.9672463  42.3230510
   6.6242827  32.5128999  43.4453574   8.5416877  30.2373493  44.3949622
   7.8991258  30.5306026  43.7489417   8.0371806  30.1226413  45.2002819
   6.1957041  33.9836666  35.0835482   7.1074897  34.2164053  34.9083179
   5.6866688  34.5673710  34.5210560   0.8328879  33.3433901  46.0930331
   1.6790074  33.7673314  46.2364980   0.7727517  32.6867525  46.7868894
   4.8026623  38.9662484  42.4749063   4.1735486  39.1308199  41.7725131
   4.4152286  39.3804094  43.2460027   8.6815855  39.9016922  39.8293427
   7.9966894  40.2815824  39.2790460   8.7659705  40.5112249  40.5625375
   3.9828324  31.0038269  47.7511505   3.7389256  31.7580329  47.2145781
   4.2588255  31.3823617  48.5858752   5.9366787  37.5476881  46.4288770
   6.1483682  38.1908641  45.7523152   5.8896535  36.7139198  45.9610701
   3.5393016  30.1594702  43.3325343   2.6777495  30.4575956  43.6242080
   3.5655451  30.3765101  42.4006375   7.0512615  40.4248837  44.6011128
   7.8730059  40.0229024  44.3193809   7.0475018  40.3217071  45.5527244
  15.1418608  36.7687585  40.9496099  14.3882316  36.1994983  40.7940104
  15.2766149  36.7350250  41.8966734   3.8809700  25.1631549  45.1549712
   3.5373969  26.0533191  45.0788823   4.2488662  24.9733207  44.2919297
   3.8459982  35.1540160  33.6622147   3.3306606  35.9244765  33.9010535
   3.5737291  34.4805297  34.2855209   1.4307093  29.9989861  38.7207386
   0.5748690  29.6096712  38.5413024   1.8434045  30.0781822  37.8607171
   2.9606240  27.5336205  43.1198945   2.4571036  27.4966340  42.3066751
   3.2536847  28.4428947  43.1795602   8.8194256  37.9072515  35.5975321
   8.0423699  37.5683675  35.1530483   9.4985737  37.9125138  34.9230286
   3.6346285  33.0267253  35.4881928   3.3296421  33.3413402  36.3392072
   4.5876728  33.1048672  35.5309261   2.0792717  39.1857476  37.1374882
   1.5514079  38.4510235  36.8248120   1.5780220  39.9632152  36.8914851
   7.0585563  37.3806496  42.2541929   6.4009238  38.0705758  42.3422057
   7.8625963  37.7702928  42.5975915   5.8691022  35.7350869  40.3045870
   6.3822904  36.3680861  40.8067580   6.5192246  35.1352065  39.9389230
   3.1313396  45.7135193  33.0606542   2.4575095  46.0166890  33.6691499
   3.5179218  46.5164274  32.7111999   2.3471853  33.2100325  42.5504211
   1.4294414  33.4315272  42.3925899   2.7631997  33.2846635  41.6915918
   3.1306901  34.6091740  37.6806891   3.8778720  35.1213138  37.3714013
   3.3998490  34.2875793  38.5411285   1.4033551  37.1050281  34.6633846
   0.4944770  36.8209314  34.7606315   1.4328635  37.5249360  33.8037152
   6.6352818  40.7156871  38.4325013   6.1815145  39.8747780  38.4890204
   6.0046785  41.3518269  38.7699793   5.5785738  31.6448857  39.6625681
   4.8408495  31.1326243  39.9935923   5.8312511  31.2049238  38.8508957
   5.0785758  42.5533367  39.3674831   5.3708732  43.1138424  38.6487197
   5.5884378  42.8461928  40.1227990   5.6797365  24.4225109  40.2567450
   5.9856242  23.5622472  39.9693365   6.4049970  25.0142729  40.0566444
   1.1009639  38.6459025  32.0021924   0.6629069  37.9294884  31.5427561
   1.8420080  38.8735140  31.4407015   3.4885017  33.7997786  47.3548914
   3.8434404  34.0269259  48.2143379   4.1357148  34.1316163  46.7326169
   9.2182754  36.9216222  38.0598243   9.0800652  37.1117818  37.1319432
   8.8618972  37.6835605  38.5166294   9.2452133  38.9892749  43.0709514
   9.6788640  38.8968038  43.9192568   9.9583714  38.9650249  42.4329530
  10.1067683  39.0316449  45.6042400  10.3003573  39.9362260  45.8501674
  10.0068301  38.5723868  46.4380985   1.7603993  28.9174340  48.1032727
   1.1131908  29.6164290  48.0097203   2.5305009  29.3510484  48.4708975
   1.9368128  36.7555105  46.1629547   2.8660188  36.9066264  45.9898514
   1.5159158  36.8439126  45.3078193   1.3304612  45.8814866  35.2753621
   1.5056367  45.4102909  36.0899243   0.6437400  46.5080632  35.5034881
   2.2861675  40.1587372  41.3216922   1.9511507  40.1188142  42.2174572
   1.7865620  39.4932088  40.8487332   5.2220866  37.5043406  31.5953982
   4.6050037  36.7790235  31.4987034   4.7537355  38.2652767  31.2521056
   6.8792405  40.1781899  47.4873742   5.9919184  39.8407820  47.6100141
   7.4490956  39.4464930  47.7242507   3.5079988  29.8849750  40.6072012
   4.0048688  29.1319713  40.2873082   2.7366970  29.9214067  40.0415221
  11.3609746  35.5890116  42.2490303  11.3499622  36.4714831  41.8784236
  10.4927125  35.2361667  42.0544840   4.5909769  38.6421438  38.1810435
   3.6566048  38.7622900  38.0115140   4.7686438  37.7393904  37.9170445
   7.9782320  34.4838757  38.7160469   8.4442773  35.3166749  38.6420772
   8.4289821  34.0183739  39.4205728   6.0458552  40.8282578  35.7146621
   6.3218395  40.7139173  36.6240495   5.1763050  40.4300063  35.6758795
   5.9498983  26.8519344  42.7551371   5.0362063  27.0823571  42.9233578
   6.3792085  26.9357788  43.6065403   5.7205442  35.0409236  45.2551265
   5.0676892  35.2885143  44.6003718   6.0985822  34.2273374  44.9213742
   2.6812616  45.0768929  39.3579435   2.8635010  44.2590585  39.8207187
   3.5045602  45.2936621  38.9204325   3.0154781  44.0037114  36.6194484
   3.5442548  43.4929569  36.0064646   3.2783001  43.6879644  37.4840017
   3.6484185  45.0377950  42.9638600   3.5235324  44.2367690  42.4549545
   4.3063276  45.5324143  42.4752570   5.7119093  42.8386970  44.5918150
   4.7649429  42.7192321  44.5196477   6.0601866  41.9509468  44.6744412
   2.7165527  42.6339686  40.7922502   2.5690489  41.7056394  40.9730072
   3.5419020  42.6559777  40.3079578   6.3199648  43.4568245  41.8787375
   7.2446196  43.2511106  41.7411826   6.1514952  43.2084646  42.7876717
   2.7127041  30.4877524  35.7854620   2.9290655  31.3702162  35.4843448
   2.2321108  30.0963737  35.0560262   1.1648776  30.8703125  44.4559381
   0.9066554  31.7920196  44.4543712   0.6333816  30.4733560  45.1459845
   6.1094965  43.9753912  37.2349467   6.2831842  43.4100335  36.4823319
   6.6023856  44.7754807  37.0528956   1.5850731  27.0035076  40.8160544
   1.6072428  27.0674409  39.8612523   2.0018790  26.1639584  41.0101050
  11.9634356  36.7390335  38.8539766  12.4065502  35.9897661  38.4558890
  11.0860866  36.7300472  38.4713498   7.0970137  43.2920677  34.3346365
   7.7921042  43.9127370  34.5533679   7.4393287  42.4416028  34.6098743
   8.9961560  40.7420382  35.8633696   9.5212884  41.0807655  35.1383016
   8.9083913  39.8067398  35.6796830   8.8053341  38.2245752  48.4817622
   8.8551346  38.0595760  49.4233145   8.6967265  37.3573011  48.0915503
   6.0957104  34.2076680  49.7976929   6.9966966  34.0683145  49.5060927
   6.1705078  34.3731135  50.7375106  10.3071538  40.6442694  48.7259644
  10.0156346  41.0072674  49.5623105   9.6943669  39.9309702  48.5472976
  11.5067220  38.2095574  41.2462214  12.3414112  38.6485378  41.4099774
  11.6426349  37.7334227  40.4270460   8.5558726  35.7675309  47.1939702
   9.0312848  35.9602955  46.3858553   7.6324292  35.8234494  46.9483085
   3.1338943  27.8023152  46.1595535   3.6520887  28.5384179  45.8342024
   2.7794076  28.1087145  46.9942295   3.3851537  24.2223435  41.6796432
   3.6653291  23.5546624  42.3056859   4.1702144  24.4152530  41.1671096
   1.1885006  43.3982429  33.2421458   0.6158973  44.0172616  32.7891930
   1.7617799  43.9481790  33.7761380   7.2560395  32.6441069  45.4268007
   8.2077818  32.7439166  45.4480231   7.0863846  31.8519337  45.9366092
   5.2774775  29.7296652  45.6127408   4.6824707  30.0101665  44.9173897
   4.9924472  30.2190553  46.3844149   4.4082265  43.6819579  34.3730041
   5.3412939  43.6165140  34.5762916   4.3205478  44.5175846  33.9144573
   7.0370282  42.9985449  31.3333988   6.9583914  42.6645313  32.2269746
   7.8579949  43.4907217  31.3325461   9.7348473  35.8647188  44.5410307
   9.7024793  34.9263189  44.7269991  10.3449097  35.9431225  43.8076132
   1.5731804  34.7343241  30.5837511   2.5190909  34.6049449  30.6525929
   1.1946049  33.9957903  31.0606939   9.8842962  32.6558232  44.5868590
   9.3682010  31.8716688  44.3998519  10.7682910  32.3276948  44.7515109
   7.5453689  26.3999247  40.5464403   7.3478510  26.0914335  41.4307735
   8.1553394  27.1260886  40.6762333  15.5525023  36.9263195  43.6816344
  16.2828412  36.6648483  44.2424047  14.9431969  36.1891917  43.7218412
  13.6340320  35.0671058  44.2790795  12.9073484  34.9327023  43.6707286
  13.2187607  35.3747886  45.0847513   1.3736787  27.2030107  36.6736637
   0.5637515  26.8577192  37.0491883   2.0621204  26.8937651  37.2624249
   3.3027335  26.2808154  38.2960934   3.8558374  26.7003608  38.9550957
   3.5397422  25.3543902  38.3383890   6.6806142  28.3908679  37.8039598
   6.1004811  29.0493483  37.4217651   6.4142075  27.5686024  37.3927016
   5.1309709  27.7913737  40.0060919   5.6309487  27.9030272  39.1975237
   5.7745317  27.4874790  40.6461727   5.4631020  30.5508770  36.8595947
   4.5756875  30.8358420  36.6416141   5.8785009  30.3902533  36.0123223
   8.8145556  30.5755291  40.5750286   9.5905947  31.0651743  40.8474903
   8.0893691  31.0013345  41.0322155  11.2518115  31.2882910  41.6324226
  11.8462606  31.0478646  40.9217535  11.3244699  30.5690041  42.2597763
   4.6074234  40.3153444  30.9543967   5.3110084  40.5203447  31.5701622
   3.8836883  40.8830206  31.2193050   5.4372044  36.0663306  37.0746237
   5.3807245  36.5231857  36.2353869   5.9900387  35.3053990  36.8969079
   9.2476850  31.8553038  37.8996356   8.9913784  31.4549673  38.7304564
   8.6229718  32.5696831  37.7746495  13.5589188  34.5949111  40.4067648
  12.9988746  34.6642300  41.1799210  12.9532691  34.4190095  39.6867144
   6.5160931  40.7535974  33.0042427   7.3506535  40.3217172  32.8219901
   6.3545274  40.5817987  33.9319321   6.1706823  37.2568087  34.3698766
   6.1155627  37.0912358  33.4287210   5.5452879  37.9644120  34.5260956
   3.2955068  23.3518973  38.2030021   2.5287464  22.7977459  38.3486703
   3.7065773  23.4240841  39.0644173  15.1445206  51.2705625  43.0997603
  15.7823616  51.1512372  42.3960943  15.0266049  52.2186469  43.1585555
  11.9534913  51.2233053  43.0359128  11.6153424  51.1074118  42.1479663
  12.8224681  50.8224218  43.0160134   9.6543192  49.9921300  32.3676068
   9.9068713  49.4702821  31.6059531   8.7167751  49.8287446  32.4702752
  14.6986475  48.9957079  40.1750811  15.4849564  48.5776502  39.8241228
  14.9625179  49.9003171  40.3432460  20.0994902  48.9332312  41.0783790
  20.8320074  48.3631529  41.3121619  19.3434258  48.5453912  41.5190295
  11.7171022  51.3559553  38.2747132  11.3529229  50.8290174  38.9860054
  12.5738138  50.9658022  38.1013618  17.6220322  42.6453886  45.5378398
  17.2903647  43.5149297  45.3139613  17.0265936  42.3290170  46.2172429
  11.3576509  46.3849453  33.2708481  11.5250911  47.2529689  33.6378952
  11.1673678  46.5476735  32.3469770  17.5148986  47.3648972  42.6171749
  16.6065863  47.2964380  42.3230510  17.4636581  47.8420917  43.4453574
  11.3365729  48.8407110  34.2555148  11.2165355  49.2864161  35.0940628
  10.6418318  49.1892428  33.6968686  19.3810632  45.5665410  44.3949622
  18.7385012  45.8597944  43.7489417  18.8765561  45.4518331  45.2002819
  17.0350796  49.3128584  35.0835482  17.9468652  49.5455970  34.9083179
  16.5260443  49.8965628  34.5210560  11.6722633  48.6725818  46.0930331
  12.5183829  49.0965232  46.2364980  11.6121271  48.0159443  46.7868894
  14.8222079  46.3330187  47.7511505  14.5783011  47.0872247  47.2145781
  15.0982009  46.7115534  48.5858752  16.7760541  52.8768799  46.4288770
  16.9877437  53.5200559  45.7523152  16.7290290  52.0431116  45.9610701
  14.3786770  45.4886620  43.3325343  13.5171249  45.7867873  43.6242080
  14.4049205  45.7057019  42.4006375  10.1317226  50.1551963  36.5488713
  10.8341269  50.6073006  37.0162640   9.7997854  49.5135781  37.1768607
   3.8742560  48.4135515  41.8505847   3.0841614  48.6693044  41.3745958
   4.3653807  49.2283853  41.9557888   5.8257305  48.7780094  38.8089324
   5.0288469  48.8898789  39.3272819   5.5982897  49.1166747  37.9430214
  25.9812362  52.0979503  40.9496099  25.2276071  51.5286901  40.7940104
  26.1159904  52.0642167  41.8966734  14.7203454  40.4923467  45.1549712
  14.3767723  41.3825109  45.0788823  15.0882417  40.3025125  44.2919297
  14.6853737  50.4832078  33.6622147  14.1700360  51.2536683  33.9010535
  14.4131045  49.8097214  34.2855209  12.2700848  45.3281779  38.7207386
  11.4142444  44.9388629  38.5413024  12.6827800  45.4073740  37.8607171
  13.7999994  42.8628122  43.1198945  13.2964790  42.8258257  42.3066751
  14.0930601  43.7720865  43.1795602  10.0442880  42.9466852  42.1265127
  10.9095877  42.7509661  41.7671017  10.1120389  42.7177204  43.0534484
  19.6588011  53.2364433  35.5975321  18.8817454  52.8975592  35.1530483
  20.3379492  53.2417056  34.9230286  14.4740040  48.3559170  35.4881928
  14.1690176  48.6705319  36.3392072  15.4270482  48.4340590  35.5309261
  17.8979318  52.7098414  42.2541929  17.2402992  53.3997675  42.3422057
  18.7019717  53.0994846  42.5975915   7.6505199  45.1769060  39.4981494
   8.2248951  44.9544241  38.7654687   8.2376182  45.2457754  40.2510095
  16.7084777  51.0642787  40.3045870  17.2216658  51.6972779  40.8067580
  17.3586001  50.4643982  39.9389230   7.9774787  47.2073521  33.5177379
   7.1412099  47.5448207  33.8386654   7.8379556  47.0722501  32.5804516
   9.9527867  42.0510309  38.2256563   9.2992279  41.7359326  37.6013178
   9.9108341  41.4286049  38.9516386  13.1865607  48.5392242  42.5504211
  12.2688169  48.7607189  42.3925899  13.6025751  48.6138553  41.6915918
  13.9700655  49.9383658  37.6806891  14.7172474  50.4505055  37.3714013
  14.2392245  49.6167711  38.5411285  16.4179492  46.9740774  39.6625681
  15.6802249  46.4618160  39.9935923  16.6706266  46.5341156  38.8508957
  16.5191120  39.7517026  40.2567450  16.8249997  38.8914390  39.9693365
  17.2443725  40.3434646  40.0566444  10.7912199  50.0470819  40.7643641
  10.8460809  49.0944656  40.6886117   9.9803402  50.2030258  41.2484939
   8.7304559  48.6647879  38.5234020   7.9172425  48.9642050  38.9299212
   9.2263554  48.2703568  39.2408502  14.3278771  49.1289704  47.3548914
  14.6828159  49.3561177  48.2143379  14.9750902  49.4608080  46.7326169
  20.0576508  52.2508139  38.0598243  19.9194407  52.4409735  37.1319432
  19.7012727  53.0127522  38.5166294   8.2218634  46.2366235  44.1395255
   8.8618013  46.0954994  43.4418218   7.3896165  45.9500748  43.7633857
  20.0845888  54.3184666  43.0709514  20.5182394  54.2259956  43.9192568
  20.7977468  54.2942167  42.4329530   5.2247251  46.2066560  38.9168241
   5.4854068  47.1211893  38.8077402   6.0464423  45.7391002  39.0664854
  20.9461437  54.3608367  45.6042400  21.1397327  55.2654178  45.8501674
  20.8462055  53.9015786  46.4380985  12.5997748  44.2466258  48.1032727
  11.9525663  44.9456207  48.0097203  13.3698763  44.6802402  48.4708975
  12.7761882  52.0847023  46.1629547  13.7053942  52.2358182  45.9898514
  12.3552912  52.1731043  45.3078193   7.8513167  47.0520748  30.7175286
   6.9742633  46.9309549  30.3537533   8.3270920  46.2606827  30.4654175
  14.3473743  45.2141668  40.6072012  14.8442442  44.4611630  40.2873082
  13.5760724  45.2505985  40.0415221  22.2003500  50.9182034  42.2490303
  22.1893377  51.8006749  41.8784236  21.3320880  50.5653585  42.0544840
  10.9308712  47.3559051  40.3343696  10.5606499  46.8030092  41.0224602
  11.4267804  46.7517185  39.7818696  18.8176075  49.8130675  38.7160469
  19.2836527  50.6458666  38.6420772  19.2683575  49.3475656  39.4205728
  16.7892738  42.1811262  42.7551371  15.8755817  42.4115488  42.9233578
  17.2185839  42.2649706  43.6065403  16.5599196  50.3701154  45.2551265
  15.9070646  50.6177061  44.6003718  16.9379576  49.5565292  44.9213742
   6.3274045  44.7663042  46.5796803   6.3915372  45.6277873  46.1674200
   6.2641166  44.1537044  45.8469161   2.5791861  48.6462604  36.1588192
   2.8745302  47.7373282  36.1055245   1.6779896  48.6250343  35.8369194
   6.1086108  46.7218600  42.1415740   5.3872693  47.3354568  42.0023214
   6.8979363  47.2576365  42.0632386   8.9112421  44.0573027  48.4156392
   9.4346823  44.3035323  49.1782701   8.6924754  44.8893061  47.9959529
   4.3079702  46.3276701  36.2827517   3.9792408  45.4474080  36.1002623
   4.6619073  46.2724370  37.1703906   7.4221525  46.6149671  36.6502994
   7.7617598  47.1435592  35.9281603   7.8693646  46.9530077  37.4261561
  10.1164966  44.9986722  46.1006062   9.7761787  44.1994535  46.5026742
   9.4103972  45.2988433  45.5282896  10.7681438  42.0836034  44.5533386
  11.5907507  41.6096512  44.4312276  11.0119502  42.8626518  45.0532072
   9.4089672  45.1124293  34.8496287  10.1298035  45.4905545  34.3460004
   8.7854977  45.8313169  34.9531265  13.5520795  45.8169442  35.7854620
  13.7684410  46.6994079  35.4843448  13.0714863  45.4255655  35.0560262
   8.2920017  48.7755155  42.3625364   8.1464597  49.0895458  43.2549646
   7.8145220  49.3940055  41.8096263  10.1516400  45.7657703  42.4106254
  10.1377968  44.8698796  42.0738552  10.8688828  45.7728367  43.0444540
  12.0042530  46.1995043  44.4559381  11.7460308  47.1212114  44.4543712
  11.4727571  45.8025478  45.1459845   9.5553296  44.6472083  37.6793824
   9.6769207  43.7188729  37.8784711   9.2655338  44.6610769  36.7672139
  12.4244486  42.3326994  40.8160544  12.4466183  42.3966327  39.8612523
  12.8412545  41.4931502  41.0101050  22.8028110  52.0682253  38.8539766
  23.2459256  51.3189578  38.4558890  21.9254621  52.0592389  38.4713498
  19.6447096  53.5537670  48.4817622  19.6945101  53.3887678  49.4233145
  19.5361019  52.6864929  48.0915503  16.9350858  49.5368598  49.7976929
  17.8360721  49.3975063  49.5060927  17.0098833  49.7023053  50.7375106
  22.3460975  53.5387491  41.2462214  23.1807866  53.9777295  41.4099774
  22.4820104  53.0626145  40.4270460  19.3952481  51.0967226  47.1939702
  19.8706602  51.2894873  46.3858553  18.4718046  51.1526412  46.9483085
  13.9732697  43.1315070  46.1595535  14.4914641  43.8676097  45.8342024
  13.6187830  43.4379063  46.9942295   5.5531635  47.9919751  34.2756941
   4.8600880  48.0664106  33.6196977   5.3083387  47.2280095  34.7978458
  14.2245292  39.5515352  41.6796432  14.5047045  38.8838541  42.3056859
  15.0095898  39.7444448  41.1671096  18.0954150  47.9732986  45.4268007
  19.0471573  48.0731084  45.4480231  17.9257600  47.1811255  45.9366092
  16.1168529  45.0588570  45.6127408  15.5218461  45.3393582  44.9173897
  15.8318226  45.5482470  46.3844149  20.5742228  51.1939106  44.5410307
  20.5418548  50.2555107  44.7269991  21.1842851  51.2723143  43.8076132
  12.4125559  50.0635159  30.5837511  13.3584663  49.9341367  30.6525929
  12.0339804  49.3249821  31.0606939  20.7236716  47.9850149  44.5868590
  20.2075765  47.2008606  44.3998519  21.6076665  47.6568866  44.7515109
  18.3847443  41.7291165  40.5464403  18.1872264  41.4206253  41.4307735
  18.9947149  42.4552804  40.6762333  26.3918778  52.2555113  43.6816344
  27.1222166  51.9940401  44.2424047  25.7825723  51.5183835  43.7218412
  24.4734075  50.3962975  44.2790795  23.7467238  50.2618940  43.6707286
  24.0581362  50.7039804  45.0847513  10.5968476  47.9885135  30.5192396
   9.6899931  47.6918248  30.5955110  10.8744457  47.6914953  29.6526682
  12.2130541  42.5322025  36.6736637  11.4031270  42.1869110  37.0491883
  12.9014958  42.2229569  37.2624249  14.1421090  41.6100072  38.2960934
  14.6952128  42.0295525  38.9550957  14.3791176  40.6835820  38.3383890
   9.3667260  44.8472071  30.6604375  10.2286424  45.1726969  30.9200193
   9.5517604  44.0603566  30.1477441  17.5199897  43.7200597  37.8039598
  16.9398566  44.3785401  37.4217651  17.2535829  42.8977942  37.3927016
  15.9703463  43.1205655  40.0060919  16.4703242  43.2322189  39.1975237
  16.6139071  42.8166708  40.6461727  16.3024775  45.8800687  36.8595947
  15.4150630  46.1650338  36.6416141  16.7178764  45.7194451  36.0123223
  19.6539311  45.9047208  40.5750286  20.4299701  46.3943661  40.8474903
  18.9287445  46.3305263  41.0322155  22.0911870  46.6174828  41.6324226
  22.6856360  46.3770564  40.9217535  22.1638453  45.8981958  42.2597763
  16.2765799  51.3955223  37.0746237  16.2201000  51.8523775  36.2353869
  16.8294141  50.6345908  36.8969079  20.0870604  47.1844955  37.8996356
  19.8307539  46.7841591  38.7304564  19.4623473  47.8988749  37.7746495
  24.3982942  49.9241028  40.4067648  23.8382500  49.9934218  41.1799210
  23.7926446  49.7482013  39.6867144  17.0100578  52.5860005  34.3698766
  16.9549382  52.4204276  33.4287210  16.3846633  53.2936037  34.5260956
  10.3196703  42.0868114  33.9484084  10.3075373  43.0309954  34.1052355
  11.2120125  41.9038259  33.6543545  14.1348823  38.6810890  38.2030021
  13.3681219  38.1269377  38.3486703  14.5459528  38.7532759  39.0644173
  25.5597209  55.8215385  45.1549712  25.2161478  56.7117026  45.0788823
  25.9276171  55.6317042  44.2919297  27.3584874  55.0808944  40.2567450
  27.6643751  54.2206307  39.9693365  28.0837479  55.6726564  40.0566444
  25.0639046  54.8807270  41.6796432  25.3440800  54.2130459  42.3056859
  25.8489653  55.0736366  41.1671096  29.2241198  57.0583083  40.5464403
  29.0266019  56.7498171  41.4307735  29.8340903  57.7844722  40.6762333
  24.9742577  54.0102808  38.2030021  24.2074973  53.4561295  38.3486703
  25.3853282  54.0824677  39.0644173   4.3051453  12.9475830  29.8242910
   4.9429863  12.8282577  29.1206250   4.1872296  13.8956674  29.8830862
   1.1141159  12.9003258  29.7604435   0.7759671  12.7844322  28.8724970
   1.9830928  12.4994423  29.7405441   1.5960942  14.0538109  35.7190640
   1.5849583  13.6590908  34.8471144   1.7581582  13.3204182  36.3124412
   2.5527534  18.4209702  21.0615791   1.9015514  19.0063782  20.6749804
   3.3471897  18.9515897  21.1210828   3.8592722  10.6727283  26.8996118
   4.6455811  10.2546707  26.5486535   4.1231426  11.5773376  27.0677766
   4.0302799  16.1100134  21.5984775   3.3948632  16.1834760  22.3105679
   3.7000205  16.6993733  20.9203854   9.2601149  10.6102517  27.8029097
   9.9926321  10.0401733  28.0366926   8.5040504  10.2224117  28.2435602
   0.8777268  13.0329758  24.9992439   0.5135476  12.5060379  25.7105360
   1.7344384  12.6428227  24.8258924   3.2758089  16.5236637  31.6619618
   2.9758812  17.4261676  31.5535425   2.9309148  16.2568820  32.5140771
   6.6755232   9.0419177  29.3417055   5.7672110   8.9734585  29.0475816
   6.6242828   9.5191122  30.1698881   8.5416879   7.2435615  31.1194929
   7.8991259   7.5368149  30.4734724   8.0371807   7.1288536  31.9248126
   6.1957042  10.9898789  21.8080788   7.1074899  11.2226175  21.6328486
   5.6866689  11.5735833  21.2455867   4.4797810  15.4123416  35.4442081
   4.8881166  14.9705827  34.6996713   3.7575072  14.8376044  35.6976274
   0.8328880  10.3496023  32.8175638   1.6790075  10.7735437  32.9610287
   0.7727518   9.6929647  33.5114201   4.8026625  15.9724607  29.1994370
   4.1735487  16.1370321  28.4970438   4.4152287  16.3866217  29.9705334
   8.6815857  16.9079045  26.5538734   7.9966895  17.2877946  26.0035767
   8.7659706  17.5174372  27.2870681   3.9828325   8.0100392  34.4756812
   3.7389257   8.7642452  33.9391087   4.2588256   8.3885739  35.3104059
   5.9366788  14.5539004  33.1534077   6.1483683  15.1970764  32.4768458
   5.8896536  13.7201320  32.6856007   3.5393017   7.1656825  30.0570649
   2.6777496   7.4638078  30.3487387   3.5655452   7.3827223  29.1251682
   7.0512616  17.4310959  31.3256434   7.8730060  17.0291147  31.0439116
   7.0475019  17.3279193  32.2772550  15.1418609  13.7749708  27.6741406
  14.3882318  13.2057106  27.5185410  15.2766150  13.7412372  28.6212041
   2.1585714  19.2686677  37.4796467   1.7149568  18.4823055  37.1617372
   2.8202927  19.4565827  36.8140358   4.2566952  19.5489477  35.5077869
   4.2385427  20.3698358  35.0158138   5.1786872  19.4243552  35.7328010
   3.8459984  12.1602283  20.3867454   3.3306607  12.9306888  20.6255841
   3.5737292  11.4867419  21.0100515   8.8194258  14.9134638  22.3220627
   8.0423700  14.5745797  21.8775789   9.4985739  14.9187261  21.6475592
   3.6346287  10.0329375  22.2127235   3.3296422  10.3475524  23.0637378
   4.5876729  10.1110795  22.2554568   2.0792719  16.1919598  23.8620189
   1.5514080  15.4572358  23.5493426   1.5780221  16.9694275  23.6160157
   7.0585565  14.3868619  28.9787235   6.4009239  15.0767880  29.0667364
   7.8625964  14.7765051  29.3221222   5.8691023  12.7412992  27.0291177
   6.3822905  13.3742984  27.5312887   6.5192247  12.1414187  26.6634537
   3.1313398  22.7197316  19.7851848   2.4575096  23.0229013  20.3936806
   3.5179220  23.5226396  19.4357305   2.3471854  10.2162447  29.2749518
   1.4294416  10.4377394  29.1171206   2.7631998  10.2908758  28.4161225
   3.1306902  11.6153863  24.4052198   3.8778721  12.1275260  24.0959320
   3.3998492  11.2937916  25.2656591   1.4033552  14.1112404  21.3879152
   0.4944771  13.8271436  21.4851622   1.4328636  14.5311482  20.5282459
   6.6352820  17.7218993  25.1570320   6.1815147  16.8809903  25.2135510
   6.0046786  18.3580391  25.4945100   5.5785739   8.6510979  26.3870987
   4.8408496   8.1388365  26.7181230   5.8312513   8.2111361  25.5754264
   5.0785759  19.5595490  26.0920138   5.3708733  20.1200547  25.3732503
   5.5884379  19.8524051  26.8473297   1.1009640  15.6521147  18.7267231
   0.6629070  14.9357006  18.2672868   1.8420081  15.8797262  18.1652322
   3.4885018  10.8059908  34.0794220   3.8434406  11.0331382  34.9388686
   4.1357149  11.1378285  33.4571476   9.2182755  13.9278344  24.7843549
   9.0800653  14.1179940  23.8564739   8.8618974  14.6897727  25.2411600
   9.2452134  15.9954871  29.7954821   9.6788641  15.9030160  30.6437875
   9.9583715  15.9712372  29.1574837   2.9780029  19.5956965  31.3287921
   3.0317052  20.1647902  32.0965637   2.1094811  19.7658850  30.9641959
  10.1067684  16.0378572  32.3287706  10.3003574  16.9424382  32.5746981
  10.0068302  15.5785991  33.1626291   5.1682793  16.1885315  37.9028587
   5.0168299  15.9595866  36.9858671   5.1587472  17.1455916  37.9159932
   1.9368129  13.7617227  32.8874853   2.8660189  13.9128387  32.7143821
   1.5159159  13.8501248  32.0323500   1.3304613  22.8876988  21.9998927
   1.5056368  22.4165032  22.8144550   0.6437401  23.5142755  22.2280188
   2.2861676  17.1649495  28.0462229   1.9511509  17.1250265  28.9419879
   1.7865622  16.4994211  27.5732639   5.2220868  14.5105529  18.3199288
   4.6050038  13.7852357  18.2232341   4.7537356  15.2714889  17.9766363
   6.8774999  19.2204437  35.9805069   6.8187545  18.5363657  35.3135652
   7.2794518  19.9623427  35.5285695   6.8792407  17.1844021  34.2119048
   5.9919185  16.8469943  34.3345447   7.4490958  16.4527052  34.4487814
  11.3609747  12.5952239  28.9735610  11.3499623  13.4776954  28.6029543
  10.4927127  12.2423789  28.7790147   2.8692243  21.7432308  33.3338450
   3.5820216  22.3779772  33.2614352   2.3782272  21.8396174  32.5178452
   4.5909770  15.6483560  24.9055742   3.6566049  15.7685023  24.7360446
   4.7686439  14.7456027  24.6415752   7.9782322  11.4900880  25.4405776
   8.4442774  12.3228871  25.3666079   8.4289822  11.0245861  26.1451035
   6.0458553  17.8344701  22.4391928   6.3218397  17.7201295  23.3485802
   5.1763052  17.4362186  22.4004101   5.7205443  12.0471359  31.9796571
   5.0676893  12.2947266  31.3249024   6.0985823  11.2335497  31.6459049
   2.6812617  22.0831052  26.0824742   2.8635011  21.2652708  26.5452494
   3.5045603  22.2998744  25.6449632   3.0154782  21.0099237  23.3439790
   3.5442549  20.4991691  22.7309952   3.2783002  20.6941767  24.2085323
   1.7693016  12.7891170  38.4662608   1.0933653  12.6885299  39.1364984
   2.5920650  12.6330383  38.9298606   0.5115799  24.0958097  32.7020224
   1.0634107  24.2589719  33.4669310   0.8521992  24.6862535  32.0300249
   5.3626673  18.9219355  38.5568879   5.9066577  19.5349313  38.0623834
   4.7813518  19.4798933  39.0735892   3.6484186  22.0440073  29.6883907
   3.5235326  21.2429812  29.1794852   4.3063277  22.5386266  29.1997877
   5.7119095  19.8449093  31.3163457   4.7649430  19.7254444  31.2441783
   6.0601868  18.9571591  31.3989718   2.7165528  19.6401809  27.5167809
   2.5690490  18.7118516  27.6975379   3.5419021  19.6621900  27.0324884
   6.3199650  20.4630368  28.6032682   7.2446197  20.2573229  28.4657133
   6.1514953  20.2146769  29.5122023   6.1094966  20.9816035  23.9594773
   6.2831843  20.4162458  23.2068626   6.6023857  21.7816930  23.7774263
  11.9634357  13.7452458  25.5785073  12.4065503  12.9959783  25.1804196
  11.0860867  13.7362594  25.1958805   7.0970138  20.2982799  21.0591671
   7.7921043  20.9189492  21.2778986   7.4393289  19.4478151  21.3344049
   8.9961561  17.7482505  22.5879002   9.5212886  18.0869778  21.8628322
   8.9083914  16.8129520  22.4042137   0.6581610  21.6616579  34.7168879
   0.9668737  21.4165725  35.5891578   1.4557092  21.8663217  34.2287749
   8.6855468  18.3815409  37.8930200   7.8951011  18.3639547  37.3534700
   8.4488822  18.9203702  38.6479237   8.8053343  15.2307875  35.2062929
   8.8551348  15.0657882  36.1478451   8.6967266  14.3635134  34.8160809
   6.0957105  11.2138803  36.5222235   6.9966968  11.0745268  36.2306233
   6.1705080  11.3793258  37.4620413  10.3071539  17.6504816  35.4504950
  10.0156348  18.0134797  36.2868411   9.6943671  16.9371825  35.2718282
  11.5067222  15.2157696  27.9707520  12.3414113  15.6547500  28.1345081
  11.6426351  14.7396349  27.1515766   8.5558728  12.7737431  33.9185008
   9.0312849  12.9665077  33.1103860   7.6324293  12.8296617  33.6728392
   1.1885007  20.4044551  19.9666765   0.6158974  21.0234738  19.5137237
   1.7617800  20.9543913  20.5006687   7.2560397   9.6503191  32.1513314
   8.2077820   9.7501289  32.1725538   7.0863847   8.8581460  32.6611398
   5.2774776   6.7358774  32.3372715   4.6824708   7.0163787  31.6419203
   4.9924473   7.2252675  33.1089456   4.4082267  20.6881701  21.0975347
   5.3412940  20.6227263  21.3008223   4.3205479  21.5237968  20.6389880
   7.0370283  20.0047572  18.0579295   6.9583915  19.6707435  18.9515053
   7.8579950  20.4969340  18.0570767   9.7348474  12.8709311  31.2655613
   9.7024795  11.9325312  31.4515297  10.3449098  12.9493348  30.5321438
   1.5731805  11.7405364  17.3082818   2.5190910  11.6111572  17.3771236
   1.1946050  11.0020026  17.7852246   9.8842963   9.6620354  31.3113897
   9.3682012   8.8778811  31.1243826  10.7682911   9.3339071  31.4760416
  15.5525024  13.9325318  30.4061650  16.2828413  13.6710606  30.9669354
  14.9431970  13.1954040  30.4463718  13.6340321  12.0733180  31.0036101
  12.9073485  11.9389145  30.3952593  13.2187608  12.3810009  31.8092819
   1.4570498  15.7923110  38.7683474   2.3773507  15.9701709  38.9623521
   1.4220081  14.8479155  38.6163174   6.6806144   5.3970802  24.5284905
   6.1004813   6.0555606  24.1462957   6.4142076   4.5748147  24.1172322
   5.4631022   7.5570892  23.5841253   4.5756877   7.8420543  23.3661448
   5.8785011   7.3964656  22.7368530   8.8145558   7.5817413  27.2995592
   9.5905948   8.0713866  27.5720209   8.0893692   8.0075468  27.7567462
  11.2518116   8.2945033  28.3569533  11.8462607   8.0540768  27.6462841
  11.3244700   7.5752163  28.9843069   4.6074235  17.3215567  17.6789273
   5.3110085  17.5265569  18.2946929   3.8836884  17.8892329  17.9438357
   5.4372045  13.0725428  23.7991543   5.3807247  13.5293980  22.9599176
   5.9900388  12.3116113  23.6214386   9.2476851   8.8615160  24.6241663
   8.9913785   8.4611796  25.4549871   8.6229719   9.5758954  24.4991802
  13.5589189  11.6011233  27.1312954  12.9988747  11.6704423  27.9044516
  12.9532692  11.4252218  26.4112450   6.5160932  17.7598096  19.7287733
   7.3506536  17.3279295  19.5465208   6.3545275  17.5880110  20.6564628
   6.1706825  14.2630210  21.0944073   6.1155628  14.0974481  20.1532517
   5.5452880  14.9706242  21.2506262   3.4852732  16.5679121  40.4197635
   4.3543891  16.7419774  40.0584270   3.0059483  17.3873538  40.2973365
  15.1445208  28.2767747  29.8242910  15.7823618  28.1574495  29.1206250
  15.0266050  29.2248591  29.8830862  11.9534914  28.2295175  29.7604435
  11.6153425  28.1136240  28.8724970  12.8224682  27.8286341  29.7405441
   7.8121730  30.0830652  25.7501326   7.2486595  29.9920589  24.9817613
   7.6974125  29.2630556  26.2303818  12.4354697  29.3830027  35.7190640
  12.4243338  28.9882825  34.8471144  12.5975336  28.6496100  36.3124412
   5.3586161  31.5781843  28.5885546   6.1507453  31.2372668  28.1731845
   5.5982812  31.6876818  29.5087699  13.3921288  33.7501620  21.0615791
  12.7409268  34.3355700  20.6749804  14.1865651  34.2807814  21.1210828
   7.3176915  30.8390757  21.4602925   8.0907791  30.2919744  21.3215801
   7.6702314  31.7035006  21.6717386   9.1561958  32.1667139  34.6669824
   8.8651824  33.0712770  34.5516490   9.7918942  32.2083667  35.3813894
  10.0818165  29.5443987  31.2571184  10.6781737  29.3200010  30.5428147
  10.1393136  28.8028733  31.8596632   9.6543193  26.9983423  19.0921375
   9.9068714  26.4764944  18.3304838   8.7167752  26.8349568  19.1948058
  14.6986476  26.0019201  26.8996118  15.4849565  25.5838624  26.5486535
  14.9625180  26.9065293  27.0677766  14.8696553  31.4392051  21.5984775
  14.2342386  31.5126678  22.3105679  14.5393960  32.0285650  20.9203854
   9.3739482  28.9011529  21.2945750   9.2575740  28.2256432  21.9626834
   9.4841742  28.4143903  20.4777903  11.7171023  28.3621676  24.9992439
  11.3529230  27.8352297  25.7105360  12.5738139  27.9720145  24.8258924
  11.3576510  23.3911576  19.9953788  11.5250912  24.2591812  20.3624259
  11.1673679  23.5538857  19.0715077  14.1151843  31.8528554  31.6619618
  13.8152566  32.7553593  31.5535425  13.7702903  31.5860738  32.5140771
   7.5664325  28.3042351  27.6956322   6.6414821  28.1718565  27.9034014
   7.8148738  29.0836571  28.1926265  17.5148987  24.3711095  29.3417055
  16.6065864  24.3026503  29.0475816  17.4636583  24.8483040  30.1698881
  11.3365731  25.8469233  20.9800454  11.2165356  26.2926284  21.8185935
  10.6418319  26.1954551  20.4213992   4.9273136  27.9475625  28.5300111
   5.0565517  28.2010104  29.4439523   4.2470587  28.5403333  28.2104766
   9.0972623  38.6172875  24.6290586   9.0196653  39.5680700  24.7079066
   8.4934266  38.2718747  25.2865512  11.5889853  25.7900740  37.2851952
  10.8123187  26.3494660  37.2754817  12.2280416  26.2757523  37.8066823
  17.0350797  26.3190706  21.8080788  17.9468653  26.5518093  21.6328486
  16.5260444  26.9027750  21.2455867   9.8436225  28.5986194  36.8469919
  10.5850909  29.1371238  36.5704743   9.1373210  29.2252482  37.0041471
  15.3191565  30.7415334  35.4442081  15.7274921  30.2997745  34.6996713
  14.5968826  30.1667962  35.6976274  11.6722635  25.6787941  32.8175638
  12.5183830  26.1027354  32.9610287  11.6121272  25.0221565  33.5114201
  15.6420379  31.3016525  29.1994370  15.0129242  31.4662239  28.4970438
  15.2546041  31.7158134  29.9705334  14.8222080  23.3392309  34.4756812
  14.5783012  24.0934370  33.9391087  15.0982010  23.7177657  35.3104059
  16.7760543  29.8830922  33.1534077  16.9877438  30.5262681  32.4768458
  16.7290291  29.0493238  32.6856007  14.3786772  22.4948742  30.0570649
  13.5171251  22.7929996  30.3487387  14.4049206  22.7119141  29.1251682
  11.1948341  31.0390933  26.4644455  11.6586687  31.3178636  25.6749077
  10.9305139  30.1374377  26.2817546   8.0872422  30.5862414  29.4024218
   8.6573779  31.0149683  28.7641703   8.6780534  30.3044999  30.1008404
  10.1317227  27.1614085  23.2734020  10.8341270  27.6135129  23.7407946
   9.7997856  26.5197904  23.9013913   8.5797589  25.7525842  37.6485229
   7.9496249  26.4342123  37.8820626   8.4733677  25.6408923  36.7038368
   3.8742561  25.4197638  28.5751154   3.0841615  25.6755166  28.0991264
   4.3653808  26.2345976  28.6803194  17.8906371  32.7602877  31.3256434
  18.7123814  32.3583064  31.0439116  17.8868774  32.6571111  32.2772550
   5.8257306  25.7842217  25.5334630   5.0288470  25.8960911  26.0518126
   5.5982899  26.1228869  24.6675521  11.6562974  32.3086920  33.4817145
  11.7207407  32.7707328  34.3175317  10.9473898  31.6784285  33.6099455
   2.1580264  25.6728128  31.0066144   2.4088303  26.5575138  31.2723720
   2.6939812  25.4932730  30.2341236  11.3710992  33.9755028  23.3496125
  11.2356667  34.8206563  23.7780973  11.9120804  34.1774305  22.5862059
   7.8578331  20.0546608  40.0110481   7.4645277  19.5012806  40.6858125
   8.6744472  20.3657186  40.4016998   4.8240389  31.4930466  23.9224050
   5.3364910  32.2873716  24.0729615   5.4763102  30.7956756  23.8557652
   6.6335274  34.6096222  26.0046804   6.8101902  35.5314187  25.8167787
   7.4292107  34.2954641  26.4341183  10.7746292  21.4704487  37.6030737
  11.5156006  22.0711640  37.5235200  11.0064215  20.7282124  37.0448780
   5.9187630  26.6560854  35.8808967   5.8041146  25.7546111  36.1816066
   5.0632148  26.9024551  35.5293783  12.9979468  34.5978594  37.4796467
  12.5543322  33.8114973  37.1617372  13.6596682  34.7857745  36.8140358
   7.7566589  36.1274396  32.0057146   8.3074014  35.9991459  31.2334140
   6.9178065  36.4269285  31.6552039  15.0960706  34.8781394  35.5077869
  15.0779182  35.6990275  35.0158138  16.0180626  34.7535469  35.7328010
  11.5533760  32.3925524  36.3501377  12.0862097  31.6313812  36.1200685
  11.0247841  32.0999175  37.0925531   2.7889306  29.8219120  24.6983621
   3.6264528  30.2316128  24.4817329   2.9667574  28.8818562  24.6683815
  14.6853738  27.4894201  20.3867454  14.1700361  28.2598805  20.6255841
  14.4131047  26.8159337  21.0100515  12.2700849  22.3343902  25.4452692
  11.4142445  21.9450752  25.2658331  12.6827801  22.4135862  24.5852478
  13.7999996  19.8690245  29.8444252  13.2964791  19.8320380  29.0312057
  14.0930603  20.7782988  29.9040909  10.0442882  19.9528975  28.8510434
  10.9095878  19.7571783  28.4916323  10.1120391  19.7239326  29.7779790
  19.6588012  30.2426555  22.3220627  18.8817455  29.9037715  21.8775789
  20.3379493  30.2479179  21.6475592  14.4740041  25.3621293  22.2127235
  14.1690177  25.6767442  23.0637378  15.4270483  25.4402713  22.2554568
  12.9186473  31.5211516  23.8620189  12.3907835  30.7864276  23.5493426
  12.4173976  32.2986193  23.6160157  17.8979319  29.7160537  28.9787235
  17.2402994  30.4059798  29.0667364  18.7019718  30.1056969  29.3221222
   7.6505201  22.1831182  26.2226801   8.2248953  21.9606364  25.4899993
   8.2376183  22.2519877  26.9755402  16.7084778  28.0704909  27.0291177
  17.2216660  28.7034901  27.5312887  17.3586002  27.4706105  26.6634537
   7.9774788  24.2135643  20.2422686   7.1412100  24.5510330  20.5631961
   7.8379557  24.0784623  19.3049823   9.9527868  19.0572431  24.9501870
   9.2992281  18.7421449  24.3258485   9.9108343  18.4348172  25.6761693
  11.0639073  29.3391726  16.8655162  10.1566135  29.1080980  17.0646311
  11.5610105  28.5429346  17.0529144  13.9707152  38.0489234  19.7851848
  13.2968851  38.3520930  20.3936806  14.3572974  38.8518314  19.4357305
  13.1865609  25.5454365  29.2749518  12.2688170  25.7669312  29.1171206
  13.6025752  25.6200675  28.4161225  13.9700657  26.9445781  24.4052198
  14.7172475  27.4567178  24.0959320  14.2392246  26.6229833  25.2656591
  12.2427307  29.4404321  21.3879152  11.3338526  29.1563354  21.4851622
  12.2722390  29.8603400  20.5282459  17.4746574  33.0510911  25.1570320
  17.0208901  32.2101821  25.2135510  16.8440541  33.6872309  25.4945100
  16.4179494  23.9802897  26.3870987  15.6802250  23.4680283  26.7181230
  16.6706267  23.5403278  25.5754264  15.9179513  34.8887407  26.0920138
  16.2102488  35.4492465  25.3732503  16.4278134  35.1815968  26.8473297
  16.5191121  16.7579149  26.9812756  16.8249998  15.8976512  26.6938672
  17.2443726  17.3496769  26.7811750   2.8115477  27.1609835  25.3694354
   2.6139877  26.5679196  24.6445421   2.2562141  26.8562046  26.0870293
  10.7912201  27.0532942  27.4888948  10.8460811  26.1006778  27.4131424
   9.9803403  27.2092381  27.9730246  11.9403394  30.9813065  18.7267231
  11.5022824  30.2648924  18.2672868  12.6813835  31.2089180  18.1652322
   8.7304561  25.6710002  25.2479326   7.9172426  25.9704172  25.6544519
   9.2263555  25.2765690  25.9653809  10.8813139  35.6667759  27.1813591
  10.8389317  35.8928605  26.2522123  11.7975837  35.4331133  27.3299392
  14.3278772  26.1351826  34.0794220  14.6828160  26.3623299  34.9388686
  14.9750904  26.4670203  33.4571476   8.2218635  23.2428357  30.8640561
   8.8618015  23.1017116  30.1663525   7.3896166  22.9562871  30.4879163
   8.9978939  32.5430788  26.9775554   9.7919538  32.0481108  26.7758129
   8.2870632  32.0148651  26.6143259  13.8173784  34.9248883  31.3287921
  13.8710806  35.4939819  32.0965637  12.9488565  35.0950768  30.9641959
   5.3061703  26.6873869  23.0535306   4.3759291  26.6258325  23.2705269
   5.4019175  26.1649822  22.2571948   5.2247252  23.2128682  25.6413548
   5.4854069  24.1274015  25.5322709   6.0464424  22.7453125  25.7910161
   6.6972177  24.6266439  32.8112373   7.3695231  24.4183801  32.1625022
   5.8701964  24.4288525  32.3717605  12.5997749  21.2528380  34.8278034
  11.9525664  21.9518330  34.7342510  13.3698765  21.6864524  35.1954282
  16.0076547  31.5177232  37.9028587  15.8562054  31.2887784  36.9858671
  15.9981227  32.4747834  37.9159932  12.7761884  29.0909145  32.8874853
  13.7053944  29.2420305  32.7143821  12.3552914  29.1793166  32.0323500
  11.5750215  33.1159810  30.6573391  11.4361301  32.7478594  31.5299329
  10.7864812  33.6307449  30.4857349  12.1698367  38.2168906  21.9998927
  12.3450123  37.7456949  22.8144550  11.4831155  38.8434672  22.2280188
  13.1255430  32.4941412  28.0462229  12.7905263  32.4542182  28.9419879
  12.6259376  31.8286128  27.5732639   7.0999674  27.9009042  33.5714810
   6.9619472  27.1689281  34.1726349   8.0104598  27.8117942  33.2898998
  16.0614622  29.8397447  18.3199288  15.4443793  29.1144275  18.2232341
  15.5931111  30.6006807  17.9766363   9.7281975  27.6129002  33.0598489
  10.4381594  26.9722194  33.0185108   9.6851283  27.8641896  33.9824670
  17.7168754  34.5496355  35.9805069  17.6581300  33.8655575  35.3135652
  18.1188272  35.2915345  35.5285695   8.4410909  24.5994220  34.8794129
   7.9048266  24.1484958  35.5315725   7.8527618  24.7340128  34.1364593
   6.7359453  41.3658269  28.7738788   6.9756051  41.9976793  29.4517806
   5.8928649  41.0146309  29.0604147   7.8513168  24.0582871  17.4420593
   6.9742634  23.9371672  17.0782839   8.3270921  23.2668949  17.1899481
  17.7186161  32.5135939  34.2119048  16.8312940  32.1761861  34.3345447
  18.2884712  31.7818970  34.4487814   4.1750030  23.7350227  31.9647123
   4.0908219  23.1275897  31.2297533   3.3532737  24.2259246  31.9656620
  11.2487314  37.1737391  31.1780292  11.1757486  37.9792363  31.6899596
  10.8064708  37.3729357  30.3528313  11.0377094  36.4109161  24.6883113
  10.2544616  36.9530841  24.7821338  11.7369839  36.9283141  25.0877354
  14.3473744  22.2203791  27.3317318  14.8442444  21.4673753  27.0118389
  13.5760726  22.2568107  26.7660528  13.7085998  37.0724225  33.3338450
  14.4213970  37.7071690  33.2614352  13.2176027  37.1688091  32.5178452
  15.4303525  30.9775478  24.9055742  14.4959804  31.0976940  24.7360446
  15.6080193  30.0747945  24.6415752  10.9308713  24.3621174  27.0589003
  10.5606500  23.8092214  27.7469909  11.4267805  23.7579307  26.5064003
  18.8176076  26.8192797  25.4405776  19.2836528  27.6520789  25.3666079
  19.2683577  26.3537779  26.1451035   8.7597911  34.8218669  34.1544021
   9.4607371  35.4555152  34.3073415   8.2893026  35.1633400  33.3939660
  16.8852307  33.1636619  22.4391928  17.1612151  33.0493213  23.3485802
  16.0156806  32.7654103  22.4004101  16.7892739  19.1873384  29.4796677
  15.8755819  19.4177611  29.6478884  17.2185840  19.2711828  30.3310710
  16.5599197  27.3763276  31.9796571  15.9070648  27.6239184  31.3249024
  16.9379577  26.5627414  31.6459049  13.5206371  37.4122969  26.0824742
  13.7028766  36.5944625  26.5452494  14.3439357  37.6290662  25.6449632
  13.8548537  36.3391155  23.3439790  14.3836303  35.8283609  22.7309952
  14.1176756  36.0233685  24.2085323  12.6086770  28.1183087  38.4662608
  11.9327407  28.0177217  39.1364984  13.4314404  27.9622301  38.9298606
   4.3565630  34.3555024  31.0875124   4.9419066  33.6098712  31.2203028
   4.1590468  34.6658981  31.9711788   7.2104285  37.3906271  26.1037566
   6.5414660  37.8752399  25.6201606   7.0717154  37.6375492  27.0180945
  11.3509553  39.4250015  32.7020224  11.9027861  39.5881636  33.4669310
  11.6915747  40.0154453  32.0300249   6.3274047  21.7725165  33.3042109
   6.3915373  22.6339995  32.8919507   6.2641167  21.1599166  32.5714468
   5.8026319  23.8448297  36.9515143   6.4298358  23.4625374  37.5652668
   4.9454238  23.6262499  37.3170836  16.2020428  34.2511272  38.5568879
  16.7460332  34.8641230  38.0623834  15.6207273  34.8090851  39.0735892
   2.5791862  25.6524726  22.8833498   2.8745303  24.7435405  22.8300552
   1.6779898  25.6312466  22.5614501  14.4877941  37.3731990  29.6883907
  14.3629080  36.5721730  29.1794852  15.1457032  37.8678184  29.1997877
   6.1086109  23.7280723  28.8661047   5.3872695  24.3416690  28.7268520
   6.8979365  24.2638488  28.7877693  16.5512849  35.1741010  31.3163457
  15.6043185  35.0546362  31.2441783  16.8995622  34.2863508  31.3989718
   8.9112422  21.0635149  35.1401699   9.4346824  21.3097446  35.9028008
   8.6924756  21.8955184  34.7204836   4.3079703  23.3338824  23.0072823
   3.9792410  22.4536203  22.8247929   4.6619074  23.2786493  23.8949213
  13.5559282  34.9693727  27.5167809  13.4084245  34.0410434  27.6975379
  14.3812776  34.9913817  27.0324884   7.4221527  23.6211794  23.3748301
   7.7617599  24.1497715  22.6526909   7.8693647  23.9592200  24.1506868
  17.1593404  35.7922285  28.6032682  18.0839952  35.5865147  28.4657133
  16.9908708  35.5438686  29.5122023  10.1164967  22.0048844  32.8251369
   9.7761788  21.2056657  33.2272049   9.4103974  22.3050555  32.2528202
  10.7681439  19.0898157  31.2778692  11.5907509  18.6158635  31.1557582
  11.0119503  19.8688641  31.7777378   9.4089674  22.1186415  21.5741594
  10.1298036  22.4967668  21.0705311   8.7854978  22.8375292  21.6776572
  13.5520797  22.8231564  22.5099926  13.7684411  23.7056202  22.2088754
  13.0714864  22.4317778  21.7805568   8.2920018  25.7817277  29.0870671
   8.1464599  26.0957580  29.9794952   7.8145222  26.4002178  28.5341569
  10.1516401  22.7719825  29.1351560  10.1377970  21.8760919  28.7983858
  10.8688829  22.7790489  29.7689846  12.0042532  23.2057166  31.1804688
  11.7460309  24.1274236  31.1789018  11.4727572  22.8087600  31.8705152
  16.9488720  36.3107953  23.9594773  17.1225598  35.7454375  23.2068626
  17.4417612  37.1108848  23.7774263   2.7665680  28.3222622  32.0258332
   2.2219148  29.0982430  32.1578606   3.6445030  28.6693426  31.8677453
   9.5553297  21.6534206  24.4039130   9.6769208  20.7250852  24.6030018
   9.2655339  21.6672892  23.4917446  12.4244487  19.3389116  27.5405850
  12.4466184  19.4028449  26.5857830  12.8412546  18.4993625  27.7346356
  17.9363893  35.6274717  21.0591671  18.6314797  36.2481410  21.2778986
  18.2787043  34.7770068  21.3344049   3.5531702  27.4492518  34.9188489
   2.8113438  27.5975153  35.5053119   3.2324446  27.7100784  34.0555238
  19.8355316  33.0774423  22.5879002  20.3606640  33.4161695  21.8628322
  19.7477669  32.1421438  22.4042137  11.4975365  36.9908496  34.7168879
  11.8062491  36.7457643  35.5891578  12.2950847  37.1955135  34.2287749
  11.5195977  39.1446406  26.9474255  11.0800967  38.6522785  27.6407112
  12.2704094  38.6019374  26.7066331   3.9988316  35.3357947  26.9498883
   4.8246336  35.0361719  26.5697527   3.6482368  34.5665569  27.3988672
   8.9669849  34.6884415  29.0196557   8.3449858  34.0255120  28.7198785
   9.6374716  34.7145547  28.3370205   2.1996921  33.2544273  27.9087817
   1.3628829  32.8266448  27.7271818   2.1720566  33.4476717  28.8458608
   9.0394376  23.1666203  38.6129063   9.0882532  24.0428326  38.2306833
   9.5816891  22.6243596  38.0400706  19.5249222  33.7107326  37.8930200
  18.7344766  33.6931465  37.3534700  19.2882577  34.2495620  38.6479237
  19.6447097  30.5599793  35.2062929  19.6945102  30.3949800  36.1478451
  19.5361020  29.6927052  34.8160809   8.5283356  33.2388338  22.4955018
   8.6771476  33.9223803  21.8421690   9.3349799  33.2193428  23.0104473
  11.2693665  23.9197575  35.3675422  10.3996974  24.2131141  35.0958010
  11.5053145  24.5038020  36.0882685   6.2835989  29.2653516  23.5016086
   6.0382031  28.3615846  23.6996297   6.4531903  29.2670666  22.5595564
  13.9732699  20.1377192  32.8840842  14.4914643  20.8738219  32.5587331
  13.6187831  20.4441186  33.7187601   5.5531636  24.9981874  21.0002248
   4.8600881  25.0726229  20.3442284   5.3083388  24.2342217  21.5223765
  14.2245293  16.5577475  28.4041739  14.5047047  15.8900664  29.0302165
  15.0095900  16.7506571  27.8916403  12.0278761  35.7336469  19.9666765
  11.4552728  36.3526656  19.5137237  12.6011555  36.2835830  20.5006687
  15.2476021  36.0173619  21.0975347  16.1806694  35.9519181  21.3008223
  15.1599234  36.8529886  20.6389880  17.8764038  35.3339489  18.0579295
  17.7977669  34.9999353  18.9515053  18.6973705  35.8261257  18.0570767
  12.4125560  27.0697282  17.3082818  13.3584665  26.9403490  17.3771236
  12.0339805  26.3311943  17.7852246  18.3847444  18.7353288  27.2709709
  18.1872265  18.4268376  28.1553041  18.9947150  19.4614926  27.4007639
  12.2964252  31.1215028  38.7683474  13.2167262  31.2993627  38.9623521
  12.2613835  30.1771073  38.6163174  10.5968477  24.9947258  17.2437703
   9.6899932  24.6980371  17.3200416  10.8744458  24.6977076  16.3771989
   1.5146417  26.3153621  27.6936749   1.1949202  25.4618930  27.4011123
   0.9679846  26.5302199  28.4494716   5.2926325  29.0316062  31.4106256
   5.5112335  29.9633170  31.4294289   5.7052099  28.6724037  32.1961059
  12.2130543  19.5384148  23.3981944  11.4031271  19.1931233  23.7737190
  12.9014960  19.2291691  23.9869556  14.1421091  18.6162194  25.0206241
  14.6952130  19.0357648  25.6796264  14.3791177  17.6897943  25.0629197
  10.1654190  24.6049268  40.8009005  10.0650917  25.5543625  40.7321096
   9.9475732  24.2767507  39.9285075   9.3667262  21.8534193  17.3849682
  10.2286426  22.1789091  17.6445499   9.5517606  21.0665689  16.8722748
   1.3834677  29.9356533  29.6629871   0.6898149  29.5210486  29.1499825
   2.1307668  29.9777069  29.0663290  17.5199898  20.7262720  24.5284905
  16.9398567  21.3847524  24.1462957  17.2535831  19.9040064  24.1172322
  15.9703464  20.1267777  26.7306225  16.4703243  20.2384312  25.9220544
  16.6139072  19.8228830  27.3707034  10.0285460  28.0346407  39.6174066
   9.5452542  28.8346767  39.8237955  10.1146399  28.0454352  38.6641510
   3.2971420  29.8674787  27.5395886   3.2742108  29.9662474  26.5877769
   3.6072056  30.7139937  27.8613052   5.9558798  31.9250942  31.6542500
   6.9102051  31.8934884  31.5872432   5.7571321  31.4641565  32.4692726
   6.5458180  30.4952058  34.2213298   7.3651069  30.9896136  34.2448135
   6.8194988  29.5784026  34.1930865  16.3024776  22.8862810  23.5841253
  15.4150631  23.1712461  23.3661448  16.7178765  22.7256573  22.7368530
  19.6539312  22.9109331  27.2995592  20.4299702  23.4005783  27.5720209
  18.9287446  23.3367385  27.7567462   4.3109027  37.4670561  28.6712698
   4.1763494  36.7070962  28.1050696   3.8941089  38.1911461  28.2041487
  15.4467990  32.6507485  17.6789273  16.1503840  32.8557487  18.2946929
  14.7230638  33.2184247  17.9438357  16.2765800  28.4017346  23.7991543
  16.2201001  28.8585897  22.9599176  16.8294142  27.6408031  23.6214386
  20.0870606  24.1907078  24.6241663  19.8307540  23.7903713  25.4549871
  19.4623474  24.9050872  24.4991802   7.4678152  38.3639878  28.8831141
   7.3510537  39.3085311  28.7809831   6.6470599  38.0613440  29.2716940
  17.3554687  33.0890014  19.7287733  18.1900291  32.6571212  19.5465208
  17.1939030  32.9172028  20.6564628  17.0100579  29.5922127  21.0944073
  16.9549383  29.4266399  20.1532517  16.3846634  30.2998160  21.2506262
   1.7993094  24.8290192  34.9205495   2.4451958  24.3189146  35.4092720
   1.5910245  25.5658873  35.4948920  14.3246486  31.8971039  40.4197635
  15.1937646  32.0711691  40.0584270  13.8453238  32.7165456  40.2973365
  10.3196705  19.0930236  20.6729391  10.3075374  20.0372076  20.8297662
  11.2120126  18.9100382  20.3788852   8.4932667  39.0168140  32.0987069
   9.3959913  39.0491750  32.4153564   8.2670037  38.0868591  32.1133405
  10.2486269  37.7699127  28.7597148   9.2981900  37.7700988  28.6461520
  10.5518755  37.0231861  28.2433182  14.1348824  15.6873013  24.9275328
  13.3681220  15.1331500  25.0732010  14.5459529  15.7594882  25.7889479
   6.1390585  21.9757809  39.0180509   7.0022047  21.6194613  39.2283834
   5.5655996  21.6371703  39.7055913  25.9838962  43.6059665  29.8242910
  26.6217372  43.4866412  29.1206250  25.8659805  44.5540509  29.8830862
  22.7928668  43.5587093  29.7604435  22.4547180  43.4428158  28.8724970
  23.6618437  43.1578258  29.7405441  18.6515484  45.4122570  25.7501326
  18.0880349  45.3212506  24.9817613  18.5367879  44.5922474  26.2303818
  23.2748451  44.7121945  35.7190640  23.2637092  44.3174743  34.8471144
  23.4369091  43.9788017  36.3124412  16.1979916  46.9073761  28.5885546
  16.9901208  46.5664586  28.1731845  16.4376566  47.0168736  29.5087699
  24.2315043  49.0793537  21.0615791  23.5803022  49.6647618  20.6749804
  25.0259406  49.6099732  21.1210828  18.1570670  46.1682674  21.4602925
  18.9301546  45.6211661  21.3215801  18.5096069  47.0326924  21.6717386
  19.9955712  47.4959057  34.6669824  19.7045578  48.4004687  34.5516490
  20.6312697  47.5375584  35.3813894  20.9211919  44.8735905  31.2571184
  21.5175492  44.6491928  30.5428147  20.9786891  44.1320651  31.8596632
  20.4936948  42.3275340  19.0921375  20.7462468  41.8056862  18.3304838
  19.5561507  42.1641486  19.1948058  25.5380231  41.3311119  26.8996118
  26.3243320  40.9130542  26.5486535  25.8018935  42.2357211  27.0677766
  25.7090308  46.7683969  21.5984775  25.0736141  46.8418596  22.3105679
  25.3787714  47.3577568  20.9203854  30.9388658  41.2686352  27.8029097
  31.6713830  40.6985569  28.0366926  30.1828013  40.8807952  28.2435602
  20.2133236  44.2303446  21.2945750  20.0969495  43.5548350  21.9626834
  20.3235496  43.7435820  20.4777903  22.5564777  43.6913594  24.9992439
  22.1922985  43.1644215  25.7105360  23.4131893  43.3012063  24.8258924
  22.1970264  38.7203493  19.9953788  22.3644667  39.5883730  20.3624259
  22.0067433  38.8830775  19.0715077  24.9545598  47.1820472  31.6619618
  24.6546321  48.0845511  31.5535425  24.6096657  46.9152655  32.5140771
  18.4058079  43.6334269  27.6956322  17.4808575  43.5010483  27.9034014
  18.6542492  44.4128488  28.1926265  28.3542741  39.7003012  29.3417055
  27.4459619  39.6318421  29.0475816  28.3030337  40.1774957  30.1698881
  22.1759485  41.1761151  20.9800454  22.0559110  41.6218201  21.8185935
  21.4812074  41.5246468  20.4213992  15.7666890  43.2767543  28.5300111
  15.8959271  43.5302021  29.4439523  15.0864341  43.8695251  28.2104766
  19.9366377  53.9464792  24.6290586  19.8590407  54.8972618  24.7079066
  19.3328021  53.6010665  25.2865512  22.4283607  41.1192658  37.2851952
  21.6516941  41.6786578  37.2754817  23.0674170  41.6049441  37.8066823
  27.8744551  41.6482624  21.8080788  28.7862408  41.8810011  21.6328486
  27.3654198  42.2319668  21.2455867  20.6829979  43.9278111  36.8469919
  21.4244664  44.4663155  36.5704743  19.9766965  44.5544400  37.0041471
  26.1585319  46.0707252  35.4442081  26.5668675  45.6289662  34.6996713
  25.4362581  45.4959879  35.6976274  22.5116389  41.0079859  32.8175638
  23.3577584  41.4319272  32.9610287  22.4515027  40.3513483  33.5114201
  26.4814134  46.6308442  29.1994370  25.8522996  46.7954156  28.4970438
  26.0939796  47.0450052  29.9705334  30.3603366  47.5662880  26.5538734
  29.6754404  47.9461782  26.0035767  30.4447215  48.1758207  27.2870681
  25.6615834  38.6684227  34.4756812  25.4176766  39.4226287  33.9391087
  25.9375765  39.0469574  35.3104059  27.6154297  45.2122839  33.1534077
  27.8271192  45.8554599  32.4768458  27.5684045  44.3785156  32.6856007
  25.2180526  37.8240660  30.0570649  24.3565005  38.1221913  30.3487387
  25.2442961  38.0411059  29.1251682  22.0342096  46.3682850  26.4644455
  22.4980441  46.6470553  25.6749077  21.7698894  45.4666295  26.2817546
  18.9266177  45.9154332  29.4024218  19.4967534  46.3441600  28.7641703
  19.5174288  45.6336917  30.1008404  20.9710982  42.4906003  23.2734020
  21.6735025  42.9427046  23.7407946  20.6391610  41.8489822  23.9013913
  19.4191343  41.0817759  37.6485229  18.7890004  41.7634040  37.8820626
  19.3127431  40.9700841  36.7038368  14.7136316  40.7489555  28.5751154
  13.9235370  41.0047084  28.0991264  15.2047563  41.5637893  28.6803194
  28.7300125  48.0894795  31.3256434  29.5517569  47.6874982  31.0439116
  28.7262528  47.9863029  32.2772550  16.6651061  41.1134135  25.5334630
  15.8682224  41.2252829  26.0518126  16.4376653  41.4520787  24.6675521
  22.4956729  47.6378838  33.4817145  22.5601161  48.0999245  34.3175317
  21.7867652  47.0076203  33.6099455  12.9974019  41.0020046  31.0066144
  13.2482057  41.8867056  31.2723720  13.5333567  40.8224647  30.2341236
  36.8206118  44.4333543  27.6741406  36.0669827  43.8640941  27.5185410
  36.9553659  44.3996208  28.6212041  22.2104746  49.3046945  23.3496125
  22.0750421  50.1498481  23.7780973  22.7514559  49.5066223  22.5862059
  18.6972086  35.3838525  40.0110481  18.3039031  34.8304724  40.6858125
  19.5138226  35.6949104  40.4016998  15.6634144  46.8222383  23.9224050
  16.1758664  47.6165634  24.0729615  16.3156856  46.1248674  23.8557652
  17.4729028  49.9388140  26.0046804  17.6495657  50.8606104  25.8167787
  18.2685862  49.6246559  26.4341183  21.6140047  36.7996404  37.6030737
  22.3549760  37.4003558  37.5235200  21.8457970  36.0574042  37.0448780
  16.7581385  41.9852772  35.8808967  16.6434900  41.0838029  36.1816066
  15.9025903  42.2316468  35.5293783  23.8373223  49.9270512  37.4796467
  23.3937077  49.1406891  37.1617372  24.4990436  50.1149662  36.8140358
  18.5960344  51.4566314  32.0057146  19.1467769  51.3283377  31.2334140
  17.7571820  51.7561203  31.6552039  25.9354461  50.2073312  35.5077869
  25.9172936  51.0282193  35.0158138  26.8574381  50.0827387  35.7328010
  22.3927515  47.7217441  36.3501377  22.9255852  46.9605730  36.1200685
  21.8641596  47.4291093  37.0925531  13.6283060  45.1511038  24.6983621
  14.4658282  45.5608046  24.4817329  13.8061328  44.2110480  24.6683815
  25.5247493  42.8186118  20.3867454  25.0094116  43.5890723  20.6255841
  25.2524801  42.1451255  21.0100515  23.1094604  37.6635819  25.4452692
  22.2536200  37.2742670  25.2658331  23.5221555  37.7427780  24.5852478
  20.8836636  35.2820892  28.8510434  21.7489633  35.0863701  28.4916323
  20.9514145  35.0531244  29.7779790  30.4981767  45.5718473  22.3220627
  29.7211209  45.2329633  21.8775789  31.1773248  45.5771096  21.6475592
  25.3133796  40.6913211  22.2127235  25.0083931  41.0059360  23.0637378
  26.2664238  40.7694630  22.2554568  23.7580228  46.8503434  23.8620189
  23.2301589  46.1156193  23.5493426  23.2567730  47.6278110  23.6160157
  28.7373074  45.0452454  28.9787235  28.0796748  45.7351716  29.0667364
  29.5413473  45.4348886  29.3221222  18.4898955  37.5123100  26.2226801
  19.0642707  37.2898282  25.4899993  19.0769938  37.5811795  26.9755402
  27.5478532  43.3996827  27.0291177  28.0610414  44.0326819  27.5312887
  28.1979756  42.7998023  26.6634537  18.8168542  39.5427561  20.2422686
  17.9805855  39.8802248  20.5631961  18.6773312  39.4076541  19.3049823
  21.9032828  44.6683644  16.8655162  20.9959889  44.4372898  17.0646311
  22.4003860  43.8721263  17.0529144  24.8100907  53.3781151  19.7851848
  24.1362605  53.6812848  20.3936806  25.1966729  54.1810232  19.4357305
  24.0259363  40.8746283  29.2749518  23.1081925  41.0961230  29.1171206
  24.4419507  40.9492593  28.4161225  24.8094411  42.2737698  24.4052198
  25.5566230  42.7859095  24.0959320  25.0786001  41.9521751  25.2656591
  23.0821061  44.7696239  21.3879152  22.1732280  44.4855272  21.4851622
  23.1116145  45.1895318  20.5282459  28.3140329  48.3802828  25.1570320
  27.8602656  47.5393738  25.2135510  27.6834295  49.0164227  25.4945100
  27.2573248  39.3094815  26.3870987  26.5196005  38.7972201  26.7181230
  27.5100022  38.8695196  25.5754264  26.7573268  50.2179325  26.0920138
  27.0496242  50.7784382  25.3732503  27.2671888  50.5107886  26.8473297
  13.6509232  42.4901753  25.3694354  13.4533631  41.8971114  24.6445421
  13.0955896  42.1853963  26.0870293  21.6305955  42.3824860  27.4888948
  21.6854565  41.4298696  27.4131424  20.8197157  42.5384299  27.9730246
  22.7797149  46.3104983  18.7267231  22.3416579  45.5940842  18.2672868
  23.5207590  46.5381097  18.1652322  19.5698315  41.0001919  25.2479326
  18.7566181  41.2996090  25.6544519  20.0657309  40.6057608  25.9653809
  21.7206893  50.9959676  27.1813591  21.6783072  51.2220523  26.2522123
  22.6369592  50.7623051  27.3299392  25.1672527  41.4643744  34.0794220
  25.5221915  41.6915217  34.9388686  25.8144658  41.7962121  33.4571476
  30.8970264  44.5862180  24.7843549  30.7588162  44.7763776  23.8564739
  30.5406483  45.3481562  25.2411600  19.0612390  38.5720275  30.8640561
  19.7011769  38.4309034  30.1663525  18.2289920  38.2854788  30.4879163
  30.9239643  46.6538707  29.7954821  31.3576150  46.5613996  30.6437875
  31.6371224  46.6296207  29.1574837  19.8372694  47.8722705  26.9775554
  20.6313292  47.3773025  26.7758129  19.1264386  47.3440568  26.6143259
  24.6567538  50.2540801  31.3287921  24.7104561  50.8231737  32.0965637
  23.7882320  50.4242686  30.9641959  16.1455457  42.0165787  23.0535306
  15.2153045  41.9550242  23.2705269  16.2412929  41.4941740  22.2571948
  16.0641006  38.5420600  25.6413548  16.3247824  39.4565933  25.5322709
  16.8858179  38.0745042  25.7910161  17.5365932  39.9558357  32.8112373
  18.2088985  39.7475719  32.1625022  16.7095718  39.7580443  32.3717605
  31.7855193  46.6962407  32.3287706  31.9791083  47.6008218  32.5746981
  31.6855811  46.2369826  33.1626291  23.4391504  36.5820298  34.8278034
  22.7919419  37.2810248  34.7342510  24.2092519  37.0156442  35.1954282
  26.8470302  46.8469150  37.9028587  26.6955808  46.6179702  36.9858671
  26.8374981  47.8039752  37.9159932  23.6155638  44.4201063  32.8874853
  24.5447698  44.5712222  32.7143821  23.1946668  44.5085084  32.0323500
  22.4143970  48.4451727  30.6573391  22.2755055  48.0770512  31.5299329
  21.6258566  48.9599367  30.4857349  23.0092122  53.5460824  21.9998927
  23.1843877  53.0748867  22.8144550  22.3224910  54.1726590  22.2280188
  23.9649185  47.8233330  28.0462229  23.6299018  47.7834100  28.9419879
  23.4653131  47.1578046  27.5732639  17.9393429  43.2300960  33.5714810
  17.8013227  42.4981199  34.1726349  18.8498352  43.1409860  33.2898998
  26.9008377  45.1689364  18.3199288  26.2837547  44.4436192  18.2232341
  26.4324865  45.9298725  17.9766363  20.5675730  42.9420919  33.0598489
  21.2775348  42.3014111  33.0185108  20.5245038  43.1933814  33.9824670
  28.5562508  49.8788273  35.9805069  28.4975054  49.1947493  35.3135652
  28.9582027  50.6207263  35.5285695  19.2804664  39.9286137  34.8794129
  18.7442021  39.4776876  35.5315725  18.6921372  40.0632046  34.1364593
  18.6906923  39.3874789  17.4420593  17.8136389  39.2663589  17.0782839
  19.1664676  38.5960867  17.1899481  28.5579916  47.8427857  34.2119048
  27.6706694  47.5053778  34.3345447  29.1278467  47.1110888  34.4487814
  10.2109063  44.1751948  27.5362100  10.8980102  43.8613678  26.9483115
  10.0557191  45.0793313  27.2629351  15.0143785  39.0642145  31.9647123
  14.9301974  38.4567814  31.2297533  14.1926491  39.5551163  31.9656620
  22.0881069  52.5029309  31.1780292  22.0151240  53.3084280  31.6899596
  21.6458462  52.7021275  30.3528313  21.8770849  51.7401079  24.6883113
  21.0938370  52.2822759  24.7821338  22.5763594  52.2575059  25.0877354
  25.1867499  37.5495708  27.3317318  25.6836198  36.7965671  27.0118389
  24.4154480  37.5860025  26.7660528  33.0397256  43.2536074  28.9735610
  33.0287132  44.1360789  28.6029543  32.1714635  42.9007625  28.7790147
  24.5479752  52.4016143  33.3338450  25.2607725  53.0363608  33.2614352
  24.0569781  52.4980009  32.5178452  26.2697279  46.3067396  24.9055742
  25.3353558  46.4268858  24.7360446  26.4473948  45.4039862  24.6415752
  21.7702467  39.6913091  27.0589003  21.4000255  39.1384132  27.7469909
  22.2661560  39.0871225  26.5064003  29.6569831  42.1484715  25.4405776
  30.1230283  42.9812707  25.3666079  30.1077331  41.6829696  26.1451035
  19.5991666  50.1510586  34.1544021  20.3001125  50.7847069  34.3073415
  19.1286781  50.4925318  33.3939660  27.7246062  48.4928536  22.4391928
  28.0005906  48.3785131  23.3485802  26.8550561  48.0946021  22.4004101
  27.3992952  42.7055194  31.9796571  26.7464402  42.9531101  31.3249024
  27.7773332  41.8919332  31.6459049  24.3600126  52.7414887  26.0824742
  24.5422520  51.9236543  26.5452494  25.1833112  52.9582579  25.6449632
  24.6942291  51.6683072  23.3439790  25.2230058  51.1575527  22.7309952
  24.9570511  51.3525602  24.2085323  23.4480525  43.4475005  38.4662608
  22.7721162  43.3469134  39.1364984  24.2708159  43.2914219  38.9298606
  15.1959384  49.6846941  31.0875124  15.7812821  48.9390629  31.2203028
  14.9984222  49.9950898  31.9711788  18.0498039  52.7198189  26.1037566
  17.3808415  53.2044316  25.6201606  17.9110909  52.9667409  27.0180945
   9.7877039  42.2552542  29.8079567   9.8261138  41.7216132  30.6016685
   9.2817332  41.7287747  29.1890544  22.1903308  54.7541932  32.7020224
  22.7421616  54.9173554  33.4669310  22.5309501  55.3446370  32.0300249
  17.1667801  37.1017082  33.3042109  17.2309128  37.9631913  32.8919507
  17.1034921  36.4891084  32.5714468  16.6420074  39.1740215  36.9515143
  17.2692112  38.7917292  37.5652668  15.7847992  38.9554417  37.3170836
  27.0414182  49.5803190  38.5568879  27.5854086  50.1933148  38.0623834
  26.4601027  50.1382768  39.0735892  13.4185616  40.9816644  22.8833498
  13.7139057  40.0727322  22.8300552  12.5173652  40.9604383  22.5614501
  25.3271695  52.7023908  29.6883907  25.2022835  51.9013648  29.1794852
  25.9850786  53.1970101  29.1997877  16.9479863  39.0572640  28.8661047
  16.2266449  39.6708608  28.7268520  17.7373119  39.5930405  28.7877693
  27.3906604  50.5032928  31.3163457  26.4436939  50.3838279  31.2441783
  27.7389377  49.6155426  31.3989718  19.7506177  36.3927067  35.1401699
  20.2740579  36.6389363  35.9028008  19.5318510  37.2247102  34.7204836
  15.1473458  38.6630741  23.0072823  14.8186164  37.7828120  22.8247929
  15.5012829  38.6078410  23.8949213  24.3953037  50.2985644  27.5167809
  24.2477999  49.3702352  27.6975379  25.2206530  50.3205735  27.0324884
  18.2615281  38.9503711  23.3748301  18.6011354  39.4789633  22.6526909
  18.7087402  39.2884117  24.1506868  27.9987159  51.1214203  28.6032682
  28.9233706  50.9157064  28.4657133  27.8302462  50.8730604  29.5122023
  20.9558722  37.3340762  32.8251369  20.6155542  36.5348575  33.2272049
  20.2497728  37.6342473  32.2528202  20.2483428  37.4478333  21.5741594
  20.9691791  37.8259586  21.0705311  19.6248732  38.1667210  21.6776572
  24.3914551  38.1523482  22.5099926  24.6078166  39.0348120  22.2088754
  23.9108618  37.7609695  21.7805568  19.1313773  41.1109195  29.0870671
  18.9858353  41.4249498  29.9794952  18.6538976  41.7294095  28.5341569
  20.9910155  38.1011743  29.1351560  20.9771724  37.2052836  28.7983858
  21.7082583  38.1082407  29.7689846  22.8436286  38.5349083  31.1804688
  22.5854064  39.4566154  31.1789018  22.3121326  38.1379518  31.8705152
  27.7882475  51.6399870  23.9594773  27.9619352  51.0746293  23.2068626
  28.2811366  52.4400765  23.7774263  13.6059435  43.6514539  32.0258332
  13.0612903  44.4274347  32.1578606  14.4838785  43.9985344  31.8677453
  20.3947051  36.9826123  24.4039130  20.5162963  36.0542770  24.6030018
  20.1049094  36.9964809  23.4917446  33.6421866  44.4036293  25.5785073
  34.0853012  43.6543619  25.1804196  32.7648376  44.3946430  25.1958805
  28.7757647  50.9566635  21.0591671  29.4708552  51.5773327  21.2778986
  29.1180797  50.1061986  21.3344049  14.3925457  42.7784436  34.9188489
  13.6507193  42.9267071  35.5053119  14.0718201  43.0392701  34.0555238
  30.6749070  48.4066340  22.5879002  31.2000395  48.7453613  21.8628322
  30.5871423  47.4713356  22.4042137  22.3369119  52.3200414  34.7168879
  22.6456246  52.0749561  35.5891578  23.1344601  52.5247052  34.2287749
  22.3589731  54.4738324  26.9474255  21.9194722  53.9814702  27.6407112
  23.1097848  53.9311291  26.7066331  14.8382070  50.6649864  26.9498883
  15.6640090  50.3653636  26.5697527  14.4876122  49.8957487  27.3988672
  19.8063603  50.0176333  29.0196557  19.1843613  49.3547038  28.7198785
  20.4768470  50.0437465  28.3370205  13.0390675  48.5836191  27.9087817
  12.2022584  48.1558365  27.7271818  13.0114321  48.7768634  28.8458608
  19.8788131  38.4958121  38.6129063  19.9276286  39.3720244  38.2306833
  20.4210645  37.9535514  38.0400706  30.3642977  49.0399244  37.8930200
  29.5738520  49.0223383  37.3534700  30.1276331  49.5787538  38.6479237
  30.4840852  45.8891710  35.2062929  30.5338857  45.7241718  36.1478451
  30.3754775  45.0218969  34.8160809  19.3677110  48.5680256  22.4955018
  19.5165231  49.2515720  21.8421690  20.1743554  48.5485346  23.0104473
  27.7744614  41.8722638  36.5222235  28.6754477  41.7329103  36.2306233
  27.8492588  42.0377093  37.4620413  22.1087419  39.2489493  35.3675422
  21.2390729  39.5423059  35.0958010  22.3446900  39.8329938  36.0882685
  31.9859048  48.3088652  35.4504950  31.6943857  48.6718632  36.2868411
  31.3731180  47.5955660  35.2718282  33.1854731  45.8741532  27.9707520
  34.0201622  46.3131336  28.1345081  33.3213860  45.3980185  27.1515766
  30.2346237  43.4321266  33.9185008  30.7100358  43.6248913  33.1103860
  29.3111802  43.4880452  33.6728392  17.1229743  44.5945434  23.5016086
  16.8775785  43.6907764  23.6996297  17.2925658  44.5962584  22.5595564
  16.3925391  40.3273791  21.0002248  15.6994636  40.4018146  20.3442284
  16.1477143  39.5634135  21.5223765  22.8672516  51.0628386  19.9666765
  22.2946483  51.6818574  19.5137237  23.4405309  51.6127748  20.5006687
  26.0869776  51.3465537  21.0975347  27.0200449  51.2811098  21.3008223
  25.9992988  52.1821803  20.6389880  28.7157792  50.6631407  18.0579295
  28.6371424  50.3291271  18.9515053  29.5367459  51.1553175  18.0570767
  31.4135983  43.5293146  31.2655613  31.3812304  42.5909147  31.4515297
  32.0236607  43.6077183  30.5321438  23.2519314  42.3989199  17.3082818
  24.1978419  42.2695407  17.3771236  22.8733559  41.6603861  17.7852246
  37.2312533  44.5909153  30.4061650  37.9615922  44.3294441  30.9669354
  36.6219479  43.8537875  30.4463718  35.3127830  42.7317016  31.0036101
  34.5860994  42.5972981  30.3952593  34.8975117  43.0393844  31.8092819
  23.1358007  46.4506945  38.7683474  24.0561016  46.6285544  38.9623521
  23.1007590  45.5062991  38.6163174  21.4362231  40.3239176  17.2437703
  20.5293687  40.0272288  17.3200416  21.7138212  40.0268994  16.3771989
  12.3540172  41.6445539  27.6936749  12.0342956  40.7910847  27.4011123
  11.8073600  41.8594117  28.4494716  16.1320079  44.3607980  31.4106256
  16.3506089  45.2925088  31.4294289  16.5445853  44.0015954  32.1961059
  23.0524297  34.8676065  23.3981944  22.2425025  34.5223150  23.7737190
  23.7408714  34.5583609  23.9869556  21.0047945  39.9341186  40.8009005
  20.9044672  40.8835543  40.7321096  20.7869487  39.6059425  39.9285075
  20.2061016  37.1826111  17.3849682  21.0680180  37.5081009  17.6445499
  20.3911360  36.3957607  16.8722748  12.2228432  45.2648451  29.6629871
  11.5291903  44.8502403  29.1499825  12.9701423  45.3068987  29.0663290
  28.3593653  36.0554637  24.5284905  27.7792322  36.7139441  24.1462957
  28.0929585  35.2331982  24.1172322  20.8679215  43.3638325  39.6174066
  20.3846296  44.1638685  39.8237955  20.9540154  43.3746269  38.6641510
  14.1365174  45.1966704  27.5395886  14.1135862  45.2954392  26.5877769
  14.4465811  46.0431855  27.8613052  16.7952552  47.2542859  31.6542500
  17.7495806  47.2226802  31.5872432  16.5965076  46.7933483  32.4692726
  17.3851934  45.8243975  34.2213298  18.2044823  46.3188054  34.2448135
  17.6588742  44.9075944  34.1930865  27.1418531  38.2154728  23.5841253
  26.2544386  38.5004378  23.3661448  27.5572520  38.0548491  22.7368530
  30.4933067  38.2401249  27.2995592  31.2693457  38.7297701  27.5720209
  29.7681201  38.6659303  27.7567462  32.9305625  38.9528868  28.3569533
  33.5250116  38.7124604  27.6462841  33.0032209  38.2335998  28.9843069
  26.2861744  47.9799402  17.6789273  26.9897594  48.1849405  18.2946929
  25.5624393  48.5476164  17.9438357  27.1159554  43.7309264  23.7991543
  27.0594756  44.1877815  22.9599176  27.6687897  42.9699948  23.6214386
  30.9264360  39.5198995  24.6241663  30.6701294  39.1195631  25.4549871
  30.3017228  40.2342789  24.4991802  35.2376698  42.2595069  27.1312954
  34.6776256  42.3288258  27.9044516  34.6320201  42.0836053  26.4112450
  28.1948441  48.4181932  19.7287733  29.0294045  47.9863130  19.5465208
  28.0332784  48.2463945  20.6564628  27.8494334  44.9214045  21.0944073
  27.7943137  44.7558316  20.1532517  27.2240389  45.6290078  21.2506262
  12.6386849  40.1582109  34.9205495  13.2845712  39.6481063  35.4092720
  12.4304000  40.8950791  35.4948920  25.1640241  47.2262957  40.4197635
  26.0331400  47.4003609  40.0584270  24.6846992  48.0457374  40.2973365
  21.1590459  34.4222154  20.6729391  21.1469129  35.3663994  20.8297662
  22.0513881  34.2392299  20.3788852  19.3326421  54.3460058  32.0987069
  20.2353668  54.3783668  32.4153564  19.1063791  53.4160509  32.1133405
  21.0880023  53.0991044  28.7597148  20.1375654  53.0992906  28.6461520
  21.3912509  52.3523779  28.2433182  16.9784340  37.3049726  39.0180509
  17.8415801  36.9486531  39.2283834  16.4049750  36.9663621  39.7055913
  36.8232717  58.9351583  29.8242910  37.4611126  58.8158330  29.1206250
  36.7053559  59.8832427  29.8830862  33.6322423  58.8879011  29.7604435
  33.2940934  58.7720075  28.8724970  34.5012191  58.4870176  29.7405441
  34.1142206  60.0413862  35.7190640  34.1030847  59.6466661  34.8471144
  34.2762845  59.3079935  36.3124412  31.3330702  57.6567258  19.0921375
  31.5856223  57.1348779  18.3304838  30.3955261  57.4933404  19.1948058
  36.3773985  56.6603037  26.8996118  37.1637074  56.2422460  26.5486535
  36.6412689  57.5649129  27.0677766  41.7782412  56.5978270  27.8029097
  42.5107584  56.0277487  28.0366926  41.0221768  56.2099870  28.2435602
  33.3958532  59.0205511  24.9992439  33.0316739  58.4936132  25.7105360
  34.2525648  58.6303980  24.8258924  39.3007832  50.3099844  32.2623705
  38.9691157  51.1795255  32.0384920  38.7053446  49.9936128  32.9417736
  33.0364019  54.0495411  19.9953788  33.2038421  54.9175647  20.3624259
  32.8461188  54.2122693  19.0715077  39.1936496  55.0294930  29.3417055
  38.2853373  54.9610338  29.0475816  39.1424092  55.5066875  30.1698881
  33.0153240  56.5053068  20.9800454  32.8952865  56.9510119  21.8185935
  32.3205828  56.8538386  20.4213992  33.2677362  56.4484576  37.2851952
  32.4910696  57.0078496  37.2754817  33.9067925  56.9341359  37.8066823
  41.0598142  53.2311368  31.1194929  40.4172522  53.5243902  30.4734724
  40.5553071  53.1164289  31.9248126  38.7138306  56.9774542  21.8080788
  39.6256162  57.2101928  21.6328486  38.2047953  57.5611586  21.2455867
  33.3510144  56.3371776  32.8175638  34.1971339  56.7611190  32.9610287
  33.2908781  55.6805400  33.5114201  36.5009589  53.9976145  34.4756812
  36.2570521  54.7518205  33.9391087  36.7769519  54.3761492  35.3104059
  36.0574281  53.1532578  30.0570649  35.1958760  53.4513831  30.3487387
  36.0836715  53.3702976  29.1251682  31.8104736  57.8197920  23.2734020
  32.5128779  58.2718964  23.7407946  31.4785365  57.1781739  23.9013913
  30.2585098  56.4109677  37.6485229  29.6283758  57.0925958  37.8820626
  30.1521186  56.2992759  36.7038368  25.5530070  56.0781473  28.5751154
  24.7629124  56.3339002  28.0991264  26.0441317  56.8929811  28.6803194
  27.5044815  56.4426052  25.5334630  26.7075979  56.5544747  26.0518126
  27.2770408  56.7812705  24.6675521  29.5365840  50.7130443  40.0110481
  29.1432786  50.1596642  40.6858125  30.3531981  51.0241021  40.4016998
  32.4533801  52.1288322  37.6030737  33.1943515  52.7295475  37.5235200
  32.6851724  51.3865960  37.0448780  36.3990964  48.1569425  31.8795019
  36.0555234  49.0471067  31.8034129  36.7669927  47.9671083  31.0164604
  36.3641247  58.1478036  20.3867454  35.8487870  58.9182641  20.6255841
  36.0918555  57.4743172  21.0100515  33.9488358  52.9927737  25.4452692
  33.0929954  52.6034587  25.2658331  34.3615310  53.0719698  24.5852478
  35.4787505  50.5274080  29.8444252  34.9752300  50.4904215  29.0312057
  35.7718112  51.4366823  29.9040909  31.7230391  50.6112810  28.8510434
  32.5883387  50.4155619  28.4916323  31.7907899  50.3823162  29.7779790
  36.1527550  56.0205128  22.2127235  35.8477686  56.3351277  23.0637378
  37.1057992  56.0986548  22.2554568  29.3292710  52.8415018  26.2226801
  29.9036462  52.6190199  25.4899993  29.9163692  52.9103712  26.9755402
  38.3872287  58.7288745  27.0291177  38.9004169  59.3618737  27.5312887
  39.0373511  58.1289940  26.6634537  29.6562297  54.8719479  20.2422686
  28.8199609  55.2094165  20.5631961  29.5167066  54.7368459  19.3049823
  31.6315377  49.7156267  24.9501870  30.9779790  49.4005284  24.3258485
  31.5895852  49.0932007  25.6761693  34.8653118  56.2038200  29.2749518
  33.9475679  56.4253147  29.1171206  35.2813261  56.2784511  28.4161225
  35.6488165  57.6029616  24.4052198  36.3959984  58.1151013  24.0959320
  35.9179755  57.2813669  25.2656591  38.0967003  54.6386732  26.3870987
  37.3589759  54.1264118  26.7181230  38.3493776  54.1987114  25.5754264
  38.1978630  47.4162984  26.9812756  38.5037507  46.5560348  26.6938672
  38.9231235  48.0080604  26.7811750  32.4699710  57.7116777  27.4888948
  32.5248319  56.7590614  27.4131424  31.6590912  57.8676216  27.9730246
  30.4092070  56.3293837  25.2479326  29.5959935  56.6288008  25.6544519
  30.9051064  55.9349526  25.9653809  36.0066281  56.7935661  34.0794220
  36.3615669  57.0207135  34.9388686  36.6538413  57.1254038  33.4571476
  29.9006144  53.9012193  30.8640561  30.5405524  53.7600952  30.1663525
  29.0683675  53.6146706  30.4879163  26.9034761  53.8712518  25.6413548
  27.1641578  54.7857851  25.5322709  27.7251933  53.4036960  25.7910161
  28.3759686  55.2850275  32.8112373  29.0482740  55.0767637  32.1625022
  27.5489473  55.0872361  32.3717605  34.2785258  51.9112216  34.8278034
  33.6313173  52.6102165  34.7342510  35.0486274  52.3448360  35.1954282
  34.4549393  59.7492981  32.8874853  35.3841453  59.9004140  32.7143821
  34.0340423  59.8377001  32.0323500  31.4069484  58.2712837  33.0598489
  32.1169103  57.6306029  33.0185108  31.3638792  58.5225732  33.9824670
  30.1198418  55.2578055  34.8794129  29.5835775  54.8068793  35.5315725
  29.5315126  55.3923964  34.1364593  29.5300677  54.7166706  17.4420593
  28.6530143  54.5955507  17.0782839  30.0058430  53.9252785  17.1899481
  25.8537539  54.3934063  31.9647123  25.7695728  53.7859732  31.2297533
  25.0320246  54.8843081  31.9656620  36.0261253  52.8787626  27.3317318
  36.5229953  52.1257588  27.0118389  35.2548235  52.9151943  26.7660528
  32.6096222  55.0205009  27.0589003  32.2394009  54.4676049  27.7469909
  33.1055314  54.4163143  26.5064003  40.4963585  57.4776633  25.4405776
  40.9624037  58.3104624  25.3666079  40.9471086  57.0121614  26.1451035
  38.4680248  49.8457220  29.4796677  37.5543328  50.0761446  29.6478884
  38.8973349  49.9295664  30.3310710  38.2386706  58.0347112  31.9796571
  37.5858157  58.2823019  31.3249024  38.6167086  57.2211250  31.6459049
  34.2874279  58.7766923  38.4662608  33.6114916  58.6761052  39.1364984
  35.1101913  58.6206136  38.9298606  28.0061556  52.4309000  33.3042109
  28.0702882  53.2923831  32.8919507  27.9428676  51.8183002  32.5714468
  27.4813828  54.5032132  36.9515143  28.1085867  54.1209210  37.5652668
  26.6241747  54.2846334  37.3170836  24.2579371  56.3108562  22.8833498
  24.5532812  55.4019240  22.8300552  23.3567407  56.2896301  22.5614501
  27.7873618  54.3864558  28.8661047  27.0660204  55.0000526  28.7268520
  28.5766874  54.9222323  28.7877693  30.5899931  51.7218985  35.1401699
  31.1134333  51.9681281  35.9028008  30.3712265  52.5539019  34.7204836
  25.9867212  53.9922659  23.0072823  25.6579919  53.1120038  22.8247929
  26.3406583  53.9370328  23.8949213  29.1009036  54.2795629  23.3748301
  29.4405108  54.8081550  22.6526909  29.5481156  54.6176035  24.1506868
  31.7952476  52.6632680  32.8251369  31.4549297  51.8640493  33.2272049
  31.0891483  52.9634391  32.2528202  32.4468948  49.7481992  31.2778692
  33.2695018  49.2742470  31.1557582  32.6907012  50.5272476  31.7777378
  31.0877183  52.7770251  21.5741594  31.8085545  53.1551503  21.0705311
  30.4642487  53.4959127  21.6776572  35.2308306  53.4815400  22.5099926
  35.4471920  54.3640037  22.2088754  34.7502373  53.0901613  21.7805568
  29.9707527  56.4401113  29.0870671  29.8252108  56.7541416  29.9794952
  29.4932731  57.0586013  28.5341569  31.8303910  53.4303661  29.1351560
  31.8165479  52.5344754  28.7983858  32.5476338  53.4374324  29.7689846
  33.6830041  53.8641001  31.1804688  33.4247818  54.7858072  31.1789018
  33.1515081  53.4671435  31.8705152  31.2340806  52.3118041  24.4039130
  31.3556717  51.3834687  24.6030018  30.9442848  52.3256727  23.4917446
  34.1031996  49.9972951  27.5405850  34.1253693  50.0612285  26.5857830
  34.5200055  49.1577460  27.7346356  30.7181885  53.8250038  38.6129063
  30.7670041  54.7012161  38.2306833  31.2604400  53.2827431  38.0400706
  38.6138368  57.2014556  36.5222235  39.5148231  57.0621021  36.2306233
  38.6886343  57.3669011  37.4620413  32.9481174  54.5781411  35.3675422
  32.0784483  54.8714977  35.0958010  33.1840654  55.1621856  36.0882685
  35.6520208  50.7961028  32.8840842  36.1702151  51.5322055  32.5587331
  35.2975340  51.1025021  33.7187601  27.2319145  55.6565709  21.0002248
  26.5388390  55.7310064  20.3442284  26.9870897  54.8926053  21.5223765
  35.9032802  47.2161310  28.4041739  36.1834556  46.5484499  29.0302165
  36.6883409  47.4090406  27.8916403  39.7741660  55.6378944  32.1513314
  40.7259083  55.7377042  32.1725538  39.6045111  54.8457213  32.6611398
  37.7956040  52.7234527  32.3372715  37.2005972  53.0039540  31.6419203
  37.5105736  53.2128428  33.1089456  34.0913069  57.7281117  17.3082818
  35.0372174  57.5987325  17.3771236  33.7127314  56.9895779  17.7852246
  42.4024226  55.6496107  31.3113897  41.8863275  54.8654564  31.1243826
  43.2864175  55.3214824  31.4760416  40.0634953  49.3937123  27.2709709
  39.8659774  49.0852211  28.1553041  40.6734659  50.1198762  27.4007639
  32.2755986  55.6531093  17.2437703  31.3687441  55.3564206  17.3200416
  32.5531967  55.3560911  16.3771989  33.8918052  50.1967983  23.3981944
  33.0818780  49.8515068  23.7737190  34.5802469  49.8875527  23.9869556
  35.8208600  49.2746030  25.0206241  36.3739639  49.6941483  25.6796264
  36.0578686  48.3481778  25.0629197  31.8441699  55.2633103  40.8009005
  31.7438426  56.2127460  40.7321096  31.6263241  54.9351342  39.9285075
  31.0454771  52.5118029  17.3849682  31.9073935  52.8372927  17.6445499
  31.2305115  51.7249524  16.8722748  39.1987407  51.3846555  24.5284905
  38.6186076  52.0431359  24.1462957  38.9323340  50.5623900  24.1172322
  37.6490973  50.7851613  26.7306225  38.1490752  50.8968147  25.9220544
  38.2926581  50.4812666  27.3707034  37.9812285  53.5446645  23.5841253
  37.0938140  53.8296296  23.3661448  38.3966274  53.3840409  22.7368530
  41.3326821  53.5693166  27.2995592  42.1087211  54.0589619  27.5720209
  40.6074955  53.9951221  27.7567462  43.7699380  54.2820786  28.3569533
  44.3643871  54.0416522  27.6462841  43.8425964  53.5627916  28.9843069
  37.9553309  59.0601181  23.7991543  37.8988510  59.5169733  22.9599176
  38.5081651  58.2991866  23.6214386  41.7658115  54.8490913  24.6241663
  41.5095049  54.4487549  25.4549871  41.1410983  55.5634707  24.4991802
  38.6888088  60.2505963  21.0944073  38.6336892  60.0850234  20.1532517
  38.0634143  60.9581995  21.2506262  23.4780603  55.4874027  34.9205495
  24.1239467  54.9772981  35.4092720  23.2697754  56.2242709  35.4948920
  31.9984214  49.7514072  20.6729391  31.9862883  50.6955911  20.8297662
  32.8907635  49.5684217  20.3788852  35.8136333  46.3456848  24.9275328
  35.0468729  45.7915335  25.0732010  36.2247038  46.4178717  25.7889479
  27.8178094  52.6341644  39.0180509  28.6809556  52.2778449  39.2283834
  27.2443505  52.2955539  39.7055913  15.1445209   5.2829870  16.5488217
  15.7823619   5.1636617  15.8451557  15.0266052   6.2310714  16.6076169
  11.9534915   5.2357298  16.4849741  11.6153427   5.1198363  15.5970276
  12.8224683   4.8348463  16.4650747  12.4354698   6.3892150  22.4435947
  12.4243339   5.9944948  21.5716450  12.5975338   5.6558222  23.0369718
   9.1561959   9.1729262  21.3915131   8.8651825  10.0774892  21.2761797
   9.7918944   9.2145789  22.1059200  10.0818166   6.5506110  17.9816490
  10.6781738   6.3262132  17.2673453  10.1393138   5.8090856  18.5841938
  20.0994904   2.9456557  14.5274403  20.8320076   2.3755774  14.7612233
  19.3434260   2.5578157  14.9680909  14.1151844   8.8590677  18.3864925
  13.8152567   9.7615716  18.2780732  13.7702904   8.5922860  19.2386077
  17.5148988   1.3773217  16.0662362  16.6065865   1.3088626  15.7721123
  17.4636584   1.8545162  16.8944187   9.0972624  15.6234997  11.3535892
   9.0196654  16.5742822  11.4324373   8.4934268  15.2780870  12.0110819
  11.5889854   2.7962863  24.0097259  10.8123188   3.3556783  24.0000124
  12.2280417   3.2819646  24.5312129  19.3810635  -0.4210344  17.8440236
  18.7385015  -0.1277811  17.1980030  18.8765563  -0.5357424  18.6493432
   9.8436226   5.6048316  23.5715226  10.5850911   6.1433360  23.2950050
   9.1373212   6.2314605  23.7286778  15.3191566   7.7477457  22.1687388
  15.7274922   7.3059867  21.4242020  14.5968827   7.1730084  22.4221580
  11.6722636   2.6850063  19.5420945  12.5183831   3.1089477  19.6855594
  11.6121274   2.0283688  20.2359508  15.6420380   8.3078647  15.9239676
  15.0129243   8.4724361  15.2215744  15.2546043   8.7220257  16.6950641
  19.5209612   9.2433085  13.2784040  18.8360651   9.6231986  12.7281074
  19.6053462   9.8528412  14.0115988  14.8222081   0.3454432  21.2002118
  14.5783013   1.0996492  20.6636394  15.0982012   0.7239779  22.0349365
  16.7760544   6.8893044  19.8779384  16.9877439   7.5324804  19.2013765
  16.7290292   6.0555361  19.4101314   8.0872423   7.5924537  16.1269525
   8.6573780   8.0211805  15.4887009   8.6780535   7.3107122  16.8253710
  17.8906372   9.7665000  18.0501741  18.7123816   9.3645187  17.7684423
  17.8868775   9.6633234  19.0017857  11.6562975   9.3149043  20.2062452
  11.7207408   9.7769450  21.0420623  10.9473899   8.6846408  20.3344761
  25.9812365   6.1103748  14.3986713  25.2276073   5.5411146  14.2430717
  26.1159906   6.0766413  15.3457347  12.9979469  11.6040717  24.2041774
  12.5543324  10.8177095  23.8862679  13.6596683  11.7919867  23.5385665
   7.7566591  13.1336518  18.7302453   8.3074016  13.0053582  17.9579446
   6.9178066  13.4331407  18.3797345  15.0960707  11.8843517  22.2323175
  15.0779183  12.7052398  21.7403444  16.0180628  11.7597592  22.4573316
  11.5533762   9.3987646  23.0746684  12.0862098   8.6375934  22.8445992
  11.0247843   9.1061298  23.8170838  17.8979320   6.7222659  15.7032542
  17.2402995   7.4121921  15.7912671  18.7019720   7.1119091  16.0466528
  16.7084779   5.0767032  13.7536484  17.2216661   5.7097024  14.2558193
  17.3586003   4.4768227  13.3879844  13.1865610   2.5516487  15.9994824
  12.2688171   2.7731434  15.8416512  13.6025754   2.6262798  15.1406532
  17.4746575  10.0573033  11.8815626  17.0208902   9.2163943  11.9380817
  16.8440542  10.6934432  12.2190407  15.9179515  11.8949530  12.8165444
  16.2102489  12.4554587  12.0977810  16.4278135  12.1878091  13.5718604
  10.8813140  12.6729881  13.9058898  10.8389319  12.8990727  12.9767430
  11.7975839  12.4393256  14.0544699  14.3278774   3.1413949  20.8039527
  14.6828161   3.3685422  21.6633993  14.9750905   3.4732325  20.1816782
  20.0576511   6.2632385  11.5088856  19.9194409   6.4533981  10.5810045
  19.7012729   7.0251767  11.9656907  20.0845890   8.3308912  16.5200127
  20.5182397   8.2384201  17.3683181  20.7977471   8.3066412  15.8820143
  13.8173785  11.9311006  18.0533228  13.8710807  12.5001942  18.8210944
  12.9488566  12.1012891  17.6887265  20.9461440   8.3732612  19.0533013
  21.1397330   9.2778423  19.2992288  20.8462058   7.9140031  19.8871598
  16.0076548   8.5239355  24.6273893  15.8562055   8.2949907  23.7103977
  15.9981228   9.4809956  24.6405238  12.7761885   6.0971268  19.6120160
  13.7053945   6.2482427  19.4389127  12.3552915   6.1855289  18.7568806
  11.5750217  10.1221932  17.3818698  11.4361302   9.7540717  18.2544636
  10.7864813  10.6369572  17.2102655  12.1698369  15.2231029   8.7244234
  12.3450124  14.7519072   9.5389857  11.4831157  15.8496795   8.9525495
  13.1255432   9.5003535  14.7707535  12.7905264   9.4604305  15.6665185
  12.6259377   8.8348251  14.2977946   7.0999676   4.9071165  20.2960116
   6.9619474   4.1751404  20.8971656   8.0104599   4.8180065  20.0144304
   9.7281976   4.6191124  19.7843796  10.4381595   3.9784316  19.7430415
   9.6851285   4.8704019  20.7069977  17.7168755  11.5558478  22.7050375
  17.6581301  10.8717698  22.0380958  18.1188273  12.2977468  22.2531001
   6.7359454  18.3720391  15.4984094   6.9756052  19.0038916  16.1763113
   5.8928650  18.0208431  15.7849453  17.7186162   9.5198062  20.9364355
  16.8312941   9.1823983  21.0590754  18.2884713   8.7881093  21.1733120
  11.2487316  14.1799514  17.9025598  11.1757487  14.9854485  18.4144903
  10.8064709  14.3791480  17.0773620  11.0377095  13.4171284  11.4128420
  10.2544617  13.9592964  11.5066644  11.7369840  13.9345264  11.8122661
  22.2003503   4.9306279  15.6980917  22.1893379   5.8130994  15.3274850
  21.3320882   4.5777830  15.5035454  13.7085999  14.0786348  20.0583757
  14.4213971  14.7133813  19.9859658  13.2176028  14.1750214  19.2423759
   8.7597913  11.8280791  20.8789328   9.4607372  12.4617274  21.0318722
   8.2893028  12.1695523  20.1184967  16.5599199   4.3825399  18.7041878
  15.9070649   4.6301306  18.0494331  16.9379579   3.5689537  18.3704355
  13.5206373  14.4185092  12.8070048  13.7028767  13.6006748  13.2697801
  14.3439359  14.6352784  12.3694938  13.8548538  13.3453277  10.0685097
  14.3836305  12.8345732   9.4555259  14.1176758  13.0295807  10.9330630
  12.6086772   5.1245210  25.1907915  11.9327409   5.0239339  25.8610290
  13.4314406   4.9684424  25.6543912   4.3565631  11.3617146  17.8120430
   4.9419068  10.6160834  17.9448335   4.1590469  11.6721103  18.6957094
   7.2104286  14.3968394  12.8282873   6.5414661  14.8814521  12.3446913
   7.0717156  14.6437614  13.7426251  11.3509555  16.4312137  19.4265531
  11.9027863  16.5943759  20.1914616  11.6915748  17.0216575  18.7545556
  16.2020429  11.2573395  25.2814186  16.7460333  11.8703353  24.7869140
  15.6207274  11.8152973  25.7981199  14.4877942  14.3794113  16.4129213
  14.3629081  13.5783853  15.9040159  15.1457033  14.8740306  15.9243183
  16.5512850  12.1803133  18.0408763  15.6043186  12.0608484  17.9687090
  16.8995623  11.2925631  18.1235025  13.5559284  11.9755849  14.2413116
  13.4084246  11.0472557  14.4220686  14.3812777  11.9975940  13.7570191
  17.1593405  12.7984408  15.3277988  18.0839953  12.5927269  15.1902439
  16.9908709  12.5500809  16.2367330  16.9488722  13.3170075  10.6840080
  17.1225599  12.7516498   9.9313932  17.4417613  14.1170970  10.5019570
  22.8028113   6.0806498  12.3030380  23.2459259   5.3313823  11.9049503
  21.9254623   6.0716635  11.9204112  17.9363894  12.6336840   7.7836978
  18.6314799  13.2543532   8.0024293  18.2787044  11.7832191   8.0589356
  19.8355317  10.0836545   9.3124309  20.3606641  10.4223818   8.5873629
  19.7477670   9.1483561   9.1287443  11.4975366  13.9970619  21.4414185
  11.8062492  13.7519766  22.3136885  12.2950848  14.2017257  20.9533056
  11.5195978  16.1508529  13.6719562  11.0800968  15.6584907  14.3652419
  12.2704095  15.6081496  13.4311637   3.9988317  12.3420069  13.6744190
   4.8246337  12.0423841  13.2942834   3.6482369  11.5727692  14.1233979
   8.9669850  11.6946538  15.7441864   8.3449859  11.0317243  15.4444092
   9.6374717  11.7207669  15.0615511  19.5249223  10.7169449  24.6175507
  18.7344767  10.6993588  24.0780006  19.2882578  11.2557743  25.3724543
  19.6447098   7.5661915  21.9308235  19.6945103   7.4011923  22.8723758
  19.5361022   6.6989174  21.5406116  16.9350861   3.5492843  23.2467542
  17.8360723   3.4099308  22.9551540  17.0098835   3.7147298  24.1865719
  21.1465295   9.9858857  22.1750257  20.8550103  10.3488837  23.0113718
  20.5337426   9.2725865  21.9963589  22.3460977   7.5511737  14.6952827
  23.1807869   7.9901541  14.8590387  22.4820106   7.0750390  13.8761073
  19.3952483   5.1091471  20.6430315  19.8706605   5.3019118  19.8349166
  18.4718049   5.1650657  20.3973699  18.0954152   1.9857231  18.8758620
  19.0471575   2.0855329  18.8970844  17.9257603   1.1935500  19.3856705
  16.1168532  -0.9287185  19.0618021  15.5218464  -0.6482173  18.3664510
  15.8318229  -0.4393284  19.8334762  20.5742230   5.2063351  17.9900920
  20.5418550   4.2679352  18.1760604  21.1842854   5.2847388  17.2566745
  20.7236719   1.9974395  18.0359203  20.2075767   1.2132851  17.8489132
  21.6076667   1.6693111  18.2005723  26.3918780   6.2679358  17.1306957
  27.1222169   6.0064646  17.6914660  25.7825726   5.5308080  17.1709025
  24.4734077   4.4087221  17.7281408  23.7467241   4.2743186  17.1197900
  24.0581364   4.7164049  18.5338126  12.2964254   8.1277150  25.4928781
  13.2167263   8.3055749  25.6868828  12.2613837   7.1833196  25.3408480
   5.2926326   6.0378185  18.1351562   5.5112336   6.9695293  18.1539596
   5.7052100   5.6786159  18.9206366  10.0285462   5.0408530  26.3419373
   9.5452543   5.8408890  26.5483262  10.1146401   5.0516474  25.3886817
   5.9558799   8.9313064  18.3787807   6.9102053   8.8997007  18.3117738
   5.7571323   8.4703688  19.1938033   6.5458181   7.5014180  20.9458604
   7.3651070   7.9958259  20.9693442   6.8194989   6.5846148  20.9176172
  22.0911872   0.6299073  15.0814840  22.6856363   0.3894809  14.3708148
  22.1638456  -0.0893797  15.7088376   4.3109028  14.4732684  15.3958005
   4.1763496  13.7133085  14.8296003   3.8941090  15.1973584  14.9286793
  24.3982945   3.9365274  13.8558261  23.8382503   4.0058463  14.6289823
  23.7926448   3.7606258  13.1357757   7.4678154  15.3702001  15.6076447
   7.3510538  16.3147433  15.5055137   6.6470600  15.0675562  15.9962246
  14.3246488   8.9033162  27.1442942  15.1937647   9.0773814  26.7829577
  13.8453239   9.7227578  27.0218671   8.4932668  16.0230263  18.8232376
   9.3959915  16.0553873  19.1398871   8.2670038  15.0930714  18.8378711
  10.2486270  14.7761249  15.4842454   9.2981901  14.7763111  15.3706827
  10.5518756  14.0293984  14.9678489  22.7928670  20.5649216  16.4849741
  22.4547181  20.4490280  15.5970276  23.6618438  20.1640381  16.4650747
  18.6515485  22.4184692  12.4746632  18.0880350  22.3274629  11.7062920
  18.5367880  21.5984597  12.9549125  23.2748453  21.7184067  22.4435947
  23.2637093  21.3236866  21.5716450  23.4369092  20.9850140  23.0369718
  16.1979917  23.9135884  15.3130853  16.9901209  23.5726708  14.8977152
  16.4376567  24.0230859  16.2333006  24.2315044  26.0855660   7.7861097
  23.5803024  26.6709740   7.3995111  25.0259407  26.6161855   7.8456135
  18.1570671  23.1744797   8.1848232  18.9301547  22.6273784   8.0461107
  18.5096070  24.0389046   8.3962693  19.9955714  24.5021179  21.3915131
  19.7045580  25.4066810  21.2761797  20.6312698  24.5437707  22.1059200
  20.9211921  21.8798028  17.9816490  21.5175493  21.6554050  17.2673453
  20.9786892  21.1382773  18.5841938  20.4936949  19.3337463   5.8166681
  20.7462470  18.8118984   5.0550144  19.5561508  19.1703609   5.9193365
  25.5380232  18.3373241  13.6241425  26.3243321  17.9192665  13.2731842
  25.8018936  19.2419334  13.7923073  25.7090309  23.7746092   8.3230081
  25.0736142  23.8480718   9.0350986  25.3787716  24.3639691   7.6449161
  30.9388659  18.2748475  14.5274403  31.6713831  17.7047691  14.7612233
  30.1828015  17.8870075  14.9680909  20.2133238  21.2365569   8.0191056
  20.0969496  20.5610472   8.6872141  20.3235498  20.7497943   7.2023209
  22.5564779  20.6975716  11.7237746  22.1922986  20.1706337  12.4350667
  23.4131895  20.3074185  11.5504231  28.4614079  11.9870049  18.9869012
  28.1297404  12.8565460  18.7630227  27.8659693  11.6706333  19.6663042
  22.1970266  15.7265616   6.7199094  22.3644668  16.5945852   7.0869565
  22.0067435  15.8892898   5.7960383  24.9545599  24.1882595  18.3864925
  24.6546322  25.0907634  18.2780732  24.6096658  23.9214778  19.2386077
  18.4058080  20.6396392  14.4201629  17.4808577  20.5072606  14.6279321
  18.6542493  21.4190611  14.9171571  22.1759486  18.1823273   7.7045761
  22.0559112  18.6280324   8.5431241  21.4812075  18.5308591   7.1459299
  15.7666891  20.2829665  15.2545418  15.8959272  20.5364144  16.1684830
  15.0864343  20.8757373  14.9350073  19.9366379  30.9526915  11.3535892
  19.8590408  31.9034740  11.4324373  19.3328022  30.6072788  12.0110819
  22.4283608  18.1254781  24.0097259  21.6516942  18.6848701  24.0000124
  23.0674171  18.6111563  24.5312129  27.8744553  18.6544747   8.5326095
  28.7862409  18.8872133   8.3573793  27.3654200  19.2381791   7.9701174
  20.6829981  20.9340234  23.5715226  21.4244665  21.4725278  23.2950050
  19.9766966  21.5606523  23.7286778  26.1585320  23.0769374  22.1687388
  26.5668676  22.6351785  21.4242020  25.4362582  22.5022002  22.4221580
  22.5116390  18.0141981  19.5420945  23.3577586  18.4381395  19.6855594
  22.4515028  17.3575605  20.2359508  26.4814135  23.6370565  15.9239676
  25.8522997  23.8016279  15.2215744  26.0939797  24.0512175  16.6950641
  30.3603367  24.5725003  13.2784040  29.6754405  24.9523904  12.7281074
  30.4447216  25.1820329  14.0115988  25.6615836  15.6746349  21.2002118
  25.4176768  16.4288410  20.6636394  25.9375766  16.0531697  22.0349365
  25.2180527  14.8302782  16.7815956  24.3565006  15.1284036  17.0732693
  25.2442962  15.0473181  15.8496989  22.0342097  23.3744973  13.1889762
  22.4980442  23.6532676  12.3994384  21.7698895  22.4728418  13.0062852
  18.9266178  22.9216455  16.1269525  19.4967535  23.3503723  15.4887009
  19.5174290  22.6399039  16.8253710  20.9710983  19.4968125   9.9979327
  21.6735026  19.9489169  10.4653253  20.6391611  18.8551944  10.6259220
  19.4191344  18.0879882  24.3730536  18.7890005  18.7696163  24.6065933
  19.3127432  17.9762964  23.4283674  14.7136317  17.7551678  15.2996460
  13.9235371  18.0109207  14.8236571  15.2047564  18.5700016  15.4048501
  28.7300126  25.0956917  18.0501741  29.5517570  24.6937105  17.7684423
  28.7262529  24.9925151  19.0017857  16.6651062  18.1196257  12.2579937
  15.8682226  18.2314952  12.7763433  16.4376654  18.4582910  11.3920827
  22.4956730  24.6440961  20.2062452  22.5601162  25.1061368  21.0420623
  21.7867654  24.0138325  20.3344761  12.9974020  18.0082169  17.7311451
  13.2482058  18.8929178  17.9969027  13.5333568  17.8286770  16.9586543
  36.8206119  21.4395666  14.3986713  36.0669828  20.8703064  14.2430717
  36.9553661  21.4058330  15.3457347  22.2104748  26.3109068  10.0741432
  22.0750422  27.1560604  10.5026280  22.7514560  26.5128346   9.3107366
  18.6972087  12.3900648  26.7355787  18.3039033  11.8366846  27.4103431
  19.5138227  12.7011226  27.1262305  15.6634145  23.8284506  10.6469357
  16.1758665  24.6227756  10.7974922  16.3156858  23.1310797  10.5802958
  17.4729030  26.9450262  12.7292110  17.6495658  27.8668227  12.5413094
  18.2685863  26.6308682  13.1586490  21.6140048  13.8058527  24.3276044
  22.3549762  14.4065680  24.2480506  21.8457971  13.0636165  23.7694086
  16.7581386  18.9914894  22.6054273  16.6434901  18.0900151  22.9061372
  15.9025904  19.2378591  22.2539090  23.8373224  26.9332635  24.2041774
  23.3937078  26.1469013  23.8862679  24.4990437  27.1211785  23.5385665
  18.5960345  28.4628436  18.7302453  19.1467770  28.3345500  17.9579446
  17.7571821  28.7623325  18.3797345  25.9354462  27.2135434  22.2323175
  25.9172937  28.0344316  21.7403444  26.8574382  27.0889510  22.4573316
  22.3927516  24.7279564  23.0746684  22.9255853  23.9667852  22.8445992
  21.8641597  24.4353216  23.8170838  25.5597211   9.8339630  18.6040325
  25.2161480  10.7241272  18.5279436  25.9276174   9.6441288  17.7409910
  13.6283062  22.1573160  11.4228928  14.4658284  22.5670169  11.2062635
  13.8061329  21.2172603  11.3929121  25.5247494  19.8248241   7.1112761
  25.0094117  20.5952846   7.3501148  25.2524802  19.1513377   7.7345822
  23.1094605  14.6697942  12.1697999  22.2536201  14.2804792  11.9903638
  23.5221557  14.7489903  11.3097784  24.6393751  12.2044285  16.5689559
  24.1358547  12.1674420  15.7557364  24.9324358  13.1137028  16.6286215
  20.8836637  12.2883015  15.5755740  21.7489634  12.0925823  15.2161630
  20.9514146  12.0593367  16.5025097  30.4981768  22.5780596   9.0465934
  29.7211211  22.2391755   8.6021096  31.1773249  22.5833219   8.3720899
  25.3133797  17.6975333   8.9372542  25.0083933  18.0121482   9.7882685
  26.2664239  17.7756753   8.9799875  23.7580229  23.8565556  10.5865496
  23.2301590  23.1218316  10.2738733  23.2567732  24.6340233  10.3405464
  18.4898956  14.5185223  12.9472107  19.0642708  14.2960404  12.2145300
  19.0769939  14.5873917  13.7000708  27.5478534  20.4058950  13.7536484
  28.0610415  21.0388941  14.2558193  28.1979758  19.8060145  13.3879844
  18.8168544  16.5489684   6.9667992  17.9805856  16.8864370   7.2877267
  18.6773313  16.4138664   6.0295129  20.7921624  11.3926472  11.6747177
  20.1386036  11.0775489  11.0503791  20.7502098  10.7702212  12.4007000
  21.9032829  21.6745767   3.5900469  20.9959891  21.4435020   3.7891618
  22.4003861  20.8783386   3.7774450  24.8100908  30.3843274   6.5097155
  24.1362607  30.6874971   7.1182113  25.1966730  31.1872354   6.1602612
  24.0259365  17.8808405  15.9994824  23.1081926  18.1023352  15.8416512
  24.4419508  17.9554716  15.1406532  24.8094412  19.2799821  11.1297505
  25.5566231  19.7921218  10.8204627  25.0786002  18.9583874  11.9901898
  23.0821062  21.7758362   8.1124459  22.1732282  21.4917394   8.2096929
  23.1116146  22.1957440   7.2527766  28.3140330  25.3864951  11.8815626
  27.8602657  24.5455861  11.9380817  27.6834297  26.0226349  12.2190407
  27.2573249  16.3156937  13.1116294  26.5196006  15.8034323  13.4426536
  27.5100023  15.8757319  12.2999571  26.7573269  27.2241448  12.8165444
  27.0496243  27.7846505  12.0977810  27.2671890  27.5170009  13.5718604
  27.3584877   9.0933189  13.7058063  27.6643754   8.2330553  13.4183978
  28.0837482   9.6850809  13.5057057  13.6509233  19.4963876  12.0939661
  13.4533633  18.9033236  11.3690728  13.0955897  19.1916086  12.8115600
  21.6305956  19.3886982  14.2134254  21.6854566  18.4360819  14.1376731
  20.8197159  19.5446421  14.6975553  22.7797150  23.3167105   5.4512537
  22.3416580  22.6002964   4.9918175  23.5207591  23.5443220   4.8897629
  19.5698316  18.0064042  11.9724633  18.7566182  18.3058212  12.3789825
  20.0657311  17.6119731  12.6899115  21.7206894  28.0021799  13.9058898
  21.6783073  28.2282645  12.9767430  22.6369593  27.7685173  14.0544699
  30.8970265  21.5924302  11.5088856  30.7588164  21.7825898  10.5810045
  30.5406484  22.3543685  11.9656907  19.0612391  15.5782397  17.5885868
  19.7011770  15.4371157  16.8908831  18.2289922  15.2916911  17.2124470
  30.9239645  23.6600829  16.5200127  31.3576151  23.5676118  17.3683181
  31.6371225  23.6358330  15.8820143  19.8372695  24.8784828  13.7020860
  20.6313294  24.3835148  13.5003435  19.1264387  24.3502691  13.3388566
  24.6567540  27.2602923  18.0533228  24.7104562  27.8293860  18.8210944
  23.7882321  27.4304808  17.6887265  16.1455459  19.0227910   9.7780613
  15.2153047  18.9612365   9.9950575  16.2412931  18.5003862   8.9817254
  16.0641008  15.5482722  12.3658855  16.3247825  16.4628056  12.2568015
  16.8858180  15.0807165  12.5155468  17.5365933  16.9620480  19.5357679
  18.2088986  16.7537842  18.8870328  16.7095719  16.7642566  19.0962912
  23.4391505  13.5882421  21.5523340  22.7919420  14.2872370  21.4587817
  24.2092520  14.0218564  21.9199588  23.6155639  21.4263185  19.6120160
  24.5447699  21.5774345  19.4389127  23.1946669  21.5147206  18.7568806
  22.4143971  25.4513850  17.3818698  22.2755057  25.0832634  18.2544636
  21.6258567  25.9661489  17.2102655  23.0092123  30.5522946   8.7244234
  23.1843879  30.0810990   9.5389857  22.3224911  31.1788713   8.9525495
  23.9649186  24.8295453  14.7707535  23.6299019  24.7896223  15.6665185
  23.4653132  24.1640168  14.2977946  17.9393430  20.2363083  20.2960116
  17.8013228  19.5043321  20.8971656  18.8498354  20.1471983  20.0144304
  26.9008378  22.1751487   5.0444595  26.2837548  21.4498315   4.9477648
  26.4324866  22.9360847   4.7011669  20.5675731  19.9483042  19.7843796
  21.2775349  19.3076234  19.7430415  20.5245039  20.1995937  20.7069977
  19.2804665  16.9348260  21.6039436  18.7442022  16.4838998  22.2561032
  18.6921373  17.0694169  20.8609900  17.5753208  33.7012309  15.4984094
  17.8149807  34.3330833  16.1763113  16.7322405  33.3500349  15.7849453
  10.2109064  21.1814071  14.2607406  10.8980104  20.8675801  13.6728422
  10.0557193  22.0855436  13.9874658  15.0143786  16.0704267  18.6892430
  14.9301975  15.4629937  17.9542840  14.1926492  16.5613286  18.6901926
  22.0881070  29.5091432  17.9025598  22.0151242  30.3146403  18.4144903
  21.6458463  29.7083397  17.0773620  21.8770850  28.7463202  11.4128420
  21.0938372  29.2884882  11.5066644  22.5763595  29.2637181  11.8122661
  25.1867500  14.5557831  14.0562625  25.6836199  13.8027793  13.7363695
  24.4154481  14.5922148  13.4905834  33.0397257  20.2598197  15.6980917
  33.0287134  21.1422912  15.3274850  32.1714637  19.9069747  15.5035454
  24.5479754  29.4078266  20.0583757  25.2607726  30.0425730  19.9859658
  24.0569782  29.5042132  19.2423759  26.2697281  23.3129518  11.6301049
  25.3353559  23.4330981  11.4605753  26.4473949  22.4101985  11.3661058
  21.7702469  16.6975214  13.7834310  21.4000256  16.1446254  14.4715215
  22.2661561  16.0933347  13.2309310  29.6569832  19.1546838  12.1651083
  30.1230284  19.9874829  12.0911385  30.1077332  18.6891819  12.8696341
  19.5991667  27.1572709  20.8789328  20.3001127  27.7909192  21.0318722
  19.1286782  27.4987441  20.1184967  27.7246063  25.4990659   9.1637235
  28.0005907  25.3847253  10.0731109  26.8550562  25.1008144   9.1249408
  27.6286495  11.5227425  16.2041984  26.7149574  11.7531651  16.3724191
  28.0579596  11.6065869  17.0556016  24.3600127  29.7477010  12.8070048
  24.5422522  28.9298666  13.2697801  25.1833113  29.9644702  12.3694938
  24.6942293  28.6745195  10.0685097  25.2230059  28.1637649   9.4555259
  24.9570512  28.3587725  10.9330630  23.4480526  20.4537128  25.1907915
  22.7721163  20.3531257  25.8610290  24.2708160  20.2976341  25.6543912
  15.1959385  26.6909064  17.8120430  15.7812822  25.9452752  17.9448335
  14.9984224  27.0013021  18.6957094  18.0498041  29.7260311  12.8282873
  17.3808416  30.2106439  12.3446913  17.9110910  29.9729532  13.7426251
   9.7877040  19.2614664  16.5324874   9.8261140  18.7278255  17.3261992
   9.2817333  18.7349870  15.9135851  22.1903309  31.7604055  19.4265531
  22.7421617  31.9235676  20.1914616  22.5309503  32.3508493  18.7545556
  17.1667802  14.1079205  20.0287416  17.2309129  14.9694036  19.6164814
  17.1034923  13.4953206  19.2959774  16.6420075  16.1802337  23.6760450
  17.2692114  15.7979415  24.2897974  15.7847994  15.9616539  24.0416143
  13.4185618  17.9878766   9.6078805  13.7139059  17.0789445   9.5545859
  12.5173653  17.9666506   9.2859807  25.3271696  29.7086031  16.4129213
  25.2022836  28.9075770  15.9040159  25.9850787  30.2032224  15.9243183
  16.9479865  16.0634763  15.5906353  16.2266450  16.6770731  15.4513827
  17.7373120  16.5992528  15.5122999  27.3906605  27.5095051  18.0408763
  26.4436940  27.3900402  17.9687090  27.7389378  26.6217549  18.1235025
  19.7506178  13.3989190  21.8647005  20.2740580  13.6451486  22.6273315
  19.5318511  14.2309224  21.4450143  15.1473459  15.6692864   9.7318130
  14.8186165  14.7890243   9.5493236  15.5012830  15.6140533  10.6194519
  24.3953038  27.3047767  14.2413116  24.2478000  26.3764474  14.4220686
  25.2206532  27.3267858  13.7570191  18.2615282  15.9565834  10.0993608
  18.6011355  16.4851755   9.3772216  18.7087403  16.2946240  10.8752174
  27.9987160  28.1276326  15.3277988  28.9233707  27.9219187  15.1902439
  27.8302463  27.8792727  16.2367330  20.9558723  14.3402885  19.5496676
  20.6155544  13.5410698  19.9517356  20.2497729  14.6404595  18.9773509
  21.6075195  11.4252197  18.0023999  22.4301264  10.9512675  17.8802889
  21.8513259  12.2042681  18.5022685  20.2483429  14.4540455   8.2986900
  20.9691792  14.8321708   7.7950617  19.6248734  15.1729332   8.4021878
  24.3914552  15.1585604   9.2345233  24.6078167  16.0410242   8.9334061
  23.9108620  14.7671818   8.5050875  19.1313774  18.1171318  15.8115977
  18.9858354  18.4311621  16.7040259  18.6538977  18.7356218  15.2586876
  20.9910157  15.1073866  15.8596867  20.9771725  14.2114959  15.5229165
  21.7082585  15.1144529  16.4935153  22.8436287  15.5411206  17.9049994
  22.5854065  16.4628277  17.9034325  22.3121328  15.1441640  18.5950459
  27.7882476  28.6461993  10.6840080  27.9619354  28.0808415   9.9313932
  28.2811367  29.4462888  10.5019570  13.6059436  20.6576662  18.7503639
  13.0612904  21.4336470  18.8823913  14.4838786  21.0047467  18.5922760
  20.3947053  13.9888246  11.1284437  20.5162964  13.0604892  11.3275325
  20.1049095  14.0026932  10.2162753  23.2638243  11.6743156  14.2651157
  23.2859940  11.7382489  13.3103137  23.6806302  10.8347665  14.4591663
  33.6421867  21.4098416  12.3030380  34.0853013  20.6605741  11.9049503
  32.7648378  21.4008552  11.9204112  28.7757649  27.9628757   7.7836978
  29.4708553  28.5835450   8.0024293  29.1180799  27.1124109   8.0589356
  14.3925458  19.7846558  21.6433795  13.6507194  19.9329194  22.2298426
  14.0718202  20.0454824  20.7800545  30.6749072  25.4128463   9.3124309
  31.2000396  25.7515736   8.5873629  30.5871424  24.4775478   9.1287443
  22.3369120  29.3262537  21.4414185  22.6456247  29.0811683  22.3136885
  23.1344602  29.5309175  20.9533056  22.3589732  31.4800446  13.6719562
  21.9194723  30.9876825  14.3652419  23.1097849  30.9373414  13.4311637
  14.8382071  27.6711987  13.6744190  15.6640091  27.3715759  13.2942834
  14.4876123  26.9019609  14.1233979  19.8063605  27.0238455  15.7441864
  19.1843614  26.3609160  15.4444092  20.4768472  27.0499587  15.0615511
  13.0390677  25.5898314  14.6333124  12.2022585  25.1620488  14.4517125
  13.0114322  25.7830757  15.5703915  19.8788132  15.5020243  25.3374370
  19.9276288  16.3782366  24.9552139  20.4210646  14.9597636  24.7646013
  19.3677112  25.5742379   9.2200324  19.5165232  26.2577843   8.5666997
  20.1743555  25.5547469   9.7349780  22.1087421  16.2551616  22.0920728
  21.2390730  16.5485182  21.8203317  22.3446901  16.8392061  22.8127992
  33.1854732  22.8803654  14.6952827  34.0201623  23.3193458  14.8590387
  33.3213861  22.4042307  13.8761073  17.1229745  21.6007556  10.2261393
  16.8775786  20.6969886  10.4241603  17.2925659  21.6024707   9.2840871
  24.8126454  12.4731233  19.6086149  25.3308398  13.2092260  19.2832637
  24.4581587  12.7795226  20.4432908  16.3925392  17.3335914   7.7247555
  15.6994637  17.4080269   7.0687591  16.1477144  16.5696257   8.2469072
  25.0639049   8.8931515  15.1287045  25.3440802   8.2254704  15.7547472
  25.8489655   9.0860611  14.6161709  22.8672517  28.0690509   6.6912072
  22.2946484  28.6880696   6.2382544  23.4405311  28.6189871   7.2251994
  26.9562286  14.4004732  19.0618021  26.3612218  14.6809745  18.3664510
  26.6711983  14.8898633  19.8334762  26.0869777  28.3527659   7.8220654
  27.0200450  28.2873221   8.0253529  25.9992990  29.1883926   7.3635187
  28.7157794  27.6693530   4.7824601  28.6371425  27.3353393   5.6760359
  29.5367460  28.1615297   4.7816074  23.2519316  19.4051322   4.0328124
  24.1978420  19.2757530   4.1016542  22.8733561  18.6665984   4.5097552
  29.2241200  11.0707328  13.9955016  29.0266021  10.7622416  14.8798348
  29.8340906  11.7968967  14.1252946  37.2312535  21.5971276  17.1306957
  37.9615923  21.3356564  17.6914660  36.6219480  20.8599998  17.1709025
  35.3127832  19.7379138  17.7281408  34.5860995  19.6035103  17.1197900
  34.8975119  20.0455967  18.5338126  23.1358008  23.4569068  25.4928781
  24.0561018  23.6347667  25.6868828  23.1007591  22.5125113  25.3408480
  12.3540173  18.6507662  14.4182056  12.0342957  17.7972970  14.1256430
  11.8073601  18.8656240  15.1740023  16.1320081  21.3670103  18.1351562
  16.3506090  22.2987210  18.1539596  16.5445854  21.0078077  18.9206366
  23.0524298  11.8738188  10.1227251  22.2425027  11.5285273  10.4982497
  23.7408715  11.5645732  10.7114862  24.9814847  10.9516235  11.7451547
  25.5345885  11.3711688  12.4041570  25.2184933  10.0251983  11.7874503
  21.0047946  16.9403308  27.5254311  20.9044673  17.8897665  27.4566402
  20.7869488  16.6121547  26.6530381  12.2228433  22.2710573  16.3875177
  11.5291905  21.8564526  15.8745132  12.9701424  22.3131110  15.7908596
  28.3593654  13.0616760  11.2530212  27.7792323  13.7201564  10.8708264
  28.0929586  12.2394104  10.8417629  26.8097220  12.4621818  13.4551532
  27.3096999  12.5738352  12.6465851  27.4532828  12.1582870  14.0952340
  20.8679216  20.3700447  26.3419373  20.3846298  21.1700807  26.5483262
  20.9540155  20.3808392  25.3886817  14.1365176  22.2028827  14.2641192
  14.1135864  22.3016514  13.3123075  14.4465812  23.0493978  14.5858358
  16.7952553  24.2604982  18.3787807  17.7495807  24.2288924  18.3117738
  16.5965077  23.7995606  19.1938033  17.3851936  22.8306098  20.9458604
  18.2044825  23.3250177  20.9693442  17.6588743  21.9138066  20.9176172
  27.1418532  15.2216850  10.3086560  26.2544387  15.5066501  10.0906755
  27.5572521  15.0610614   9.4613837  30.4933068  15.2463371  14.0240899
  31.2693458  15.7359824  14.2965516  29.7681202  15.6721425  14.4812769
  32.9305627  15.9590990  15.0814840  33.5250117  15.7186726  14.3708148
  33.0032210  15.2398121  15.7088376  15.1502782  29.8024601  15.3958005
  15.0157250  29.0425002  14.8296003  14.7334845  30.5265501  14.9286793
  26.2861745  24.9861525   4.4034580  26.9897595  25.1911527   5.0192235
  25.5624394  25.5538287   4.6683663  27.1159556  20.7371386  10.5236850
  27.0594757  21.1939938   9.6844482  27.6687898  19.9762071  10.3459693
  30.9264361  16.5261118  11.3486969  30.6701296  16.1257754  12.1795177
  30.3017230  17.2404912  11.2237109  35.2376699  19.2657191  13.8558261
  34.6776257  19.3350381  14.6289823  34.6320203  19.0898176  13.1357757
  18.3071908  30.6993918  15.6076447  18.1904292  31.6439351  15.5055137
  17.4864354  30.3967480  15.9962246  28.1948443  25.4244054   6.4533040
  29.0294047  24.9925253   6.2710515  28.0332786  25.2526068   7.3809934
  27.8494335  21.9276167   7.8189379  27.7943139  21.7620439   6.8777823
  27.2240390  22.6352200   7.9751569  12.6386850  17.1644232  21.6450801
  13.2845713  16.6543186  22.1338027  12.4304001  17.9012913  22.2194227
  21.1590460  11.4284276   7.3974698  21.1469130  12.3726116   7.5542968
  22.0513882  11.2454422   7.1034159  19.3326422  31.3522180  18.8232376
  20.2353669  31.3845791  19.1398871  19.1063792  30.4222631  18.8378711
  21.0880024  30.1053167  15.4842454  20.1375655  30.1055028  15.3706827
  21.3912510  29.3585901  14.9678489  24.9742580   8.0227053  11.6520634
  24.2074976   7.4685540  11.7977317  25.3853285   8.0948922  12.5134786
  16.9784341  14.3111849  25.7425816  17.8415802  13.9548654  25.9529140
  16.4049752  13.9725744  26.4301220  36.8232718  35.9413705  16.5488217
  37.4611128  35.8220453  15.8451557  36.7053561  36.8894549  16.6076169
  33.6322424  35.8941133  16.4849741  33.2940936  35.7782198  15.5970276
  34.5012192  35.4932298  16.4650747  29.4909240  37.7476610  12.4746632
  28.9274105  37.6566547  11.7062920  29.3761635  36.9276514  12.9549125
  34.1142207  37.0475985  22.4435947  34.1030848  36.6528783  21.5716450
  34.2762847  36.3142058  23.0369718  27.0373672  39.2427801  15.3130853
  27.8294964  38.9018626  14.8977152  27.2770322  39.3522776  16.2333006
  35.0708798  41.4147577   7.7861097  34.4196778  42.0001658   7.3995111
  35.8653161  41.9453772   7.8456135  28.9964426  38.5036715   8.1848232
  29.7695302  37.9565702   8.0461107  29.3489825  39.3680964   8.3962693
  30.8349468  39.8313097  21.3915131  30.5439334  40.7358728  21.2761797
  31.4706453  39.8729625  22.1059200  31.7605675  37.2089945  17.9816490
  32.3569247  36.9845968  17.2673453  31.8180647  36.4674691  18.5841938
  31.3330703  34.6629381   5.8166681  31.5856224  34.1410902   5.0550144
  30.3955263  34.4995526   5.9193365  36.3773986  33.6665159  13.6241425
  37.1637076  33.2484582  13.2731842  36.6412691  34.5711251  13.7923073
  36.5484064  39.1038009   8.3230081  35.9129897  39.1772636   9.0350986
  36.2181470  39.6931608   7.6449161  41.7782413  33.6040392  14.5274403
  42.5107585  33.0339609  14.7612233  41.0221769  33.2161993  14.9680909
  31.0526992  36.5657487   8.0191056  30.9363250  35.8902390   8.6872141
  31.1629252  36.0789861   7.2023209  33.3958533  36.0267634  11.7237746
  33.0316740  35.4998255  12.4350667  34.2525649  35.6366103  11.5504231
  39.3007834  27.3161966  18.9869012  38.9691159  28.1857377  18.7630227
  38.7053447  26.9998250  19.6663042  33.0364020  31.0557533   6.7199094
  33.2038422  31.9237770   7.0869565  32.8461189  31.2184815   5.7960383
  35.7939353  39.5174512  18.3864925  35.4940076  40.4199551  18.2780732
  35.4490413  39.2506696  19.2386077  29.2451835  35.9688309  14.4201629
  28.3202331  35.8364523  14.6279321  29.4936248  36.7482528  14.9171571
  39.1936497  32.0357053  16.0662362  38.2853374  31.9672461  15.7721123
  39.1424093  32.5128998  16.8944187  33.0153241  33.5115191   7.7045761
  32.8952866  33.9572242   8.5431241  32.3205829  33.8600509   7.1459299
  26.6060646  35.6121583  15.2545418  26.7353027  35.8656062  16.1684830
  25.9258097  36.2049291  14.9350073  30.7760133  46.2818833  11.3535892
  30.6984163  47.2326658  11.4324373  30.1721777  45.9364705  12.0110819
  33.2677363  33.4546698  24.0097259  32.4910697  34.0140618  24.0000124
  33.9067926  33.9403481  24.5312129  41.0598143  30.2373491  17.8440236
  40.4172524  30.5306024  17.1980030  40.5553072  30.1226411  18.6493432
  38.7138307  33.9836664   8.5326095  39.6256163  34.2164051   8.3573793
  38.2047954  34.5673708   7.9701174  31.5223735  36.2632152  23.5715226
  32.2638420  36.8017196  23.2950050  30.8160721  36.8898440  23.7286778
  36.9979075  38.4061292  22.1687388  37.4062431  37.9643703  21.4242020
  36.2756336  37.8313920  22.4221580  33.3510145  33.3433899  19.5420945
  34.1971340  33.7673312  19.6855594  33.2908783  32.6867523  20.2359508
  37.3207889  38.9662483  15.9239676  36.6916752  39.1308197  15.2215744
  36.9333552  39.3804092  16.6950641  41.1997121  39.9016920  13.2784040
  40.5148160  40.2815822  12.7281074  41.2840971  40.5112247  14.0115988
  36.5009590  31.0038267  21.2002118  36.2570522  31.7580328  20.6636394
  36.7769521  31.3823615  22.0349365  38.4548053  37.5476880  19.8779384
  38.6664948  38.1908639  19.2013765  38.4077801  36.7139196  19.4101314
  36.0574282  30.1594700  16.7815956  35.1958761  30.4575954  17.0732693
  36.0836717  30.3765099  15.8496989  32.8735851  38.7036891  13.1889762
  33.3374197  38.9824594  12.3994384  32.6092649  37.8020335  13.0062852
  29.7659932  38.2508372  16.1269525  30.3361289  38.6795641  15.4887009
  30.3568044  37.9690957  16.8253710  31.8104737  34.8260043   9.9979327
  32.5128781  35.2781087  10.4653253  31.4785366  34.1843862  10.6259220
  30.2585099  33.4171800  24.3730536  29.6283759  34.0988081  24.6065933
  30.1521187  33.3054881  23.4283674  25.5530071  33.0843596  15.2996460
  24.7629125  33.3401124  14.8236571  26.0441319  33.8991934  15.4048501
  39.5693881  40.4248835  18.0501741  40.3911325  40.0229022  17.7684423
  39.5656284  40.3217069  19.0017857  27.5044817  33.4488175  12.2579937
  26.7075980  33.5606869  12.7763433  27.2770409  33.7874827  11.3920827
  33.3350484  39.9732878  20.2062452  33.3994917  40.4353285  21.0420623
  32.6261408  39.3430243  20.3344761  23.8367774  33.3374086  17.7311451
  24.0875813  34.2221096  17.9969027  24.3727323  33.1578688  16.9586543
  47.6599874  36.7687583  14.3986713  46.9063582  36.1994981  14.2430717
  47.7947415  36.7350248  15.3457347  33.0498502  41.6400986  10.0741432
  32.9144177  42.4852521  10.5026280  33.5908315  41.8420263   9.3107366
  26.5027899  39.1576424  10.6469357  27.0152420  39.9519674  10.7974922
  27.1550612  38.4602714  10.5802958  28.3122784  42.2742180  12.7292110
  28.4889412  43.1960145  12.5413094  29.1079618  41.9600599  13.1586490
  27.5975141  34.3206812  22.6054273  27.4828656  33.4192069  22.9061372
  26.7419658  34.5670509  22.2539090  34.6766978  42.2624552  24.2041774
  34.2330833  41.4760931  23.8862679  35.3384192  42.4503703  23.5385665
  29.4354100  43.7920354  18.7302453  29.9861525  43.6637417  17.9579446
  28.5965575  44.0915243  18.3797345  36.7748216  42.5427352  22.2323175
  36.7566692  43.3636233  21.7403444  37.6968137  42.4181427  22.4573316
  33.2321271  40.0571482  23.0746684  33.7649607  39.2959770  22.8445992
  32.7035352  39.7645133  23.8170838  24.4676816  37.4865078  11.4228928
  25.3052038  37.8962086  11.2062635  24.6455084  36.5464520  11.3929121
  36.3641248  35.1540159   7.1112761  35.8487872  35.9244763   7.3501148
  36.0918557  34.4805295   7.7345822  33.9488359  29.9989859  12.1697999
  33.0929956  29.6096710  11.9903638  34.3615311  30.0781820  11.3097784
  35.4787506  27.5336203  16.5689559  34.9752302  27.4966338  15.7557364
  35.7718113  28.4428945  16.6286215  31.7230392  27.6174932  15.5755740
  32.5883389  27.4217741  15.2161630  31.7907901  27.3885284  16.5025097
  41.3375522  37.9072513   9.0465934  40.5604965  37.5683673   8.6021096
  42.0167003  37.9125137   8.3720899  36.1527551  33.0267251   8.9372542
  35.8477687  33.3413400   9.7882685  37.1057994  33.1048671   8.9799875
  34.5973983  39.1857474  10.5865496  34.0695345  38.4510234  10.2738733
  34.0961486  39.9632150  10.3405464  39.5766829  37.3806495  15.7032542
  38.9190504  38.0705756  15.7912671  40.3807229  37.7702927  16.0466528
  29.3292711  29.8477140  12.9472107  29.9036463  29.6252322  12.2145300
  29.9163693  29.9165835  13.7000708  38.3872288  35.7350867  13.7536484
  38.9004170  36.3680859  14.2558193  39.0373512  35.1352063  13.3879844
  29.6562298  31.8781601   6.9667992  28.8199610  32.2156288   7.2877267
  29.5167068  31.7430581   6.0295129  31.6315379  26.7218389  11.6747177
  30.9779791  26.4067406  11.0503791  31.5895853  26.0994130  12.4007000
  32.7426583  37.0037684   3.5900469  31.8353645  36.7726938   3.7891618
  33.2397615  36.2075304   3.7774450  34.8653119  33.2100323  15.9994824
  33.9475680  33.4315270  15.8416512  35.2813263  33.2846633  15.1406532
  35.6488167  34.6091739  11.1297505  36.3959986  35.1213136  10.8204627
  35.9179756  34.2875791  11.9901898  33.9214817  37.1050279   8.1124459
  33.0126036  36.8209312   8.2096929  33.9509901  37.5249358   7.2527766
  39.1534084  40.7156869  11.8815626  38.6996411  39.8747779  11.9380817
  38.5228051  41.3518267  12.2190407  38.0967004  31.6448855  13.1116294
  37.3589761  31.1326241  13.4426536  38.3493777  31.2049236  12.2999571
  37.5967024  42.5533365  12.8165444  37.8889998  43.1138423  12.0977810
  38.1065644  42.8461926  13.5718604  38.1978631  24.4225107  13.7058063
  38.5037508  23.5622470  13.4183978  38.9231236  25.0142727  13.5057057
  24.4902987  34.8255793  12.0939661  24.2927387  34.2325154  11.3690728
  23.9349651  34.5208004  12.8115600  32.4699711  34.7178900  14.2134254
  32.5248321  33.7652736  14.1376731  31.6590913  34.8738339  14.6975553
  33.6190905  38.6459023   5.4512537  33.1810335  37.9294882   4.9918175
  34.3601346  38.8735138   4.8897629  30.4092071  33.3355960  11.9724633
  29.5959936  33.6350130  12.3789825  30.9051065  32.9411648  12.6899115
  32.5600649  43.3313717  13.9058898  32.5176828  43.5574563  12.9767430
  33.4763348  43.0977091  14.0544699  36.0066283  33.7997784  20.8039527
  36.3615670  34.0269257  21.6633993  36.6538414  34.1316161  20.1816782
  41.7364020  36.9216220  11.5088856  41.5981918  37.1117816  10.5810045
  41.3800238  37.6835603  11.9656907  29.9006146  30.9074315  17.5885868
  30.5405525  30.7663074  16.8908831  29.0683676  30.6208829  17.2124470
  41.7633399  38.9892747  16.5200127  42.1969906  38.8968036  17.3683181
  42.4764980  38.9650247  15.8820143  30.6766450  40.2076746  13.7020860
  31.4707048  39.7127066  13.5003435  29.9658142  39.6794609  13.3388566
  35.4961294  42.5894841  18.0533228  35.5498316  43.1585777  18.8210944
  34.6276075  42.7596726  17.6887265  26.9849213  34.3519827   9.7780613
  26.0546801  34.2904283   9.9950575  27.0806685  33.8295780   8.9817254
  26.9034762  30.8774640  12.3658855  27.1641579  31.7919973  12.2568015
  27.7251934  30.4099083  12.5155468  28.3759687  32.2912397  19.5357679
  29.0482741  32.0829759  18.8870328  27.5489474  32.0934483  19.0962912
  42.6248949  39.0316448  19.0533013  42.8184839  39.9362258  19.2992288
  42.5249567  38.5723867  19.8871598  37.6864057  39.1823190  24.6273893
  37.5349564  38.9533742  23.7103977  37.6768737  40.1393792  24.6405238
  34.4549394  36.7555103  19.6120160  35.3841454  36.9066263  19.4389127
  34.0340424  36.8439124  18.7568806  33.2537726  40.7805768  17.3818698
  33.1148811  40.4124552  18.2544636  32.4652322  41.2953407  17.2102655
  33.8485878  45.8814864   8.7244234  34.0237633  45.4102907   9.5389857
  33.1618666  46.5080630   8.9525495  34.8042941  40.1587370  14.7707535
  34.4692773  40.1188140  15.6665185  34.3046886  39.4932086  14.2977946
  28.7787185  35.5655000  20.2960116  28.6406983  34.8335239  20.8971656
  29.6892108  35.4763900  20.0144304  37.7402132  37.5043405   5.0444595
  37.1231303  36.7790233   4.9477648  37.2718621  38.2652765   4.7011669
  31.4069485  35.2774960  19.7843796  32.1169104  34.6368152  19.7430415
  31.3638793  35.5287854  20.7069977  39.3956264  42.2142313  22.7050375
  39.3368810  41.5301533  22.0380958  39.7975782  42.9561303  22.2531001
  30.1198419  32.2640177  21.6039436  29.5835776  31.8130916  22.2561032
  29.5315128  32.3986086  20.8609900  28.4146963  49.0304227  15.4984094
  28.6543561  49.6622751  16.1763113  27.5716159  48.6792267  15.7849453
  29.5300678  31.7228829   4.1665899  28.6530145  31.6017630   3.8028146
  30.0058431  30.9314907   3.9144788  39.3973671  40.1781897  20.9364355
  38.5100450  39.8407819  21.0590754  39.9672222  39.4464928  21.1733120
  21.0502818  36.5105989  14.2607406  21.7373858  36.1967719  13.6728422
  20.8950947  37.4147353  13.9874658  25.8537541  31.3996185  18.6892430
  25.7695729  30.7921855  17.9542840  25.0320247  31.8905203  18.6901926
  32.9274825  44.8383349  17.9025598  32.8544996  45.6438321  18.4144903
  32.4852218  45.0375315  17.0773620  32.7164604  44.0755119  11.4128420
  31.9332126  44.6176799  11.5066644  33.4157349  44.5929099  11.8122661
  36.0261254  29.8849749  14.0562625  36.5229954  29.1319711  13.7363695
  35.2548236  29.9214065  13.4905834  43.8791012  35.5890114  15.6980917
  43.8680888  36.4714830  15.3274850  43.0108391  35.2361665  15.5035454
  35.3873508  44.7370183  20.0583757  36.1001480  45.3717648  19.9859658
  34.8963537  44.8334049  19.2423759  37.1091035  38.6421436  11.6301049
  36.1747314  38.7622898  11.4605753  37.2867704  37.7393903  11.3661058
  32.6096223  32.0267132  13.7834310  32.2394011  31.4738172  14.4715215
  33.1055316  31.4225265  13.2309310  40.4963586  34.4838755  12.1651083
  40.9624039  35.3166747  12.0911385  40.9471087  34.0183737  12.8696341
  30.4385422  42.4864627  20.8789328  31.1394881  43.1201110  21.0318722
  29.9680537  42.8279358  20.1184967  38.5639818  40.8282576   9.1637235
  38.8399661  40.7139171  10.0731109  37.6944316  40.4300061   9.1249408
  38.4680249  26.8519342  16.2041984  37.5543329  27.0823569  16.3724191
  38.8973351  26.9357786  17.0556016  38.2386708  35.0409234  18.7041878
  37.5858158  35.2885142  18.0494331  38.6167088  34.2273372  18.3704355
  35.1993882  45.0768927  12.8070048  35.3816276  44.2590583  13.2697801
  36.0226868  45.2936620  12.3694938  35.5336047  44.0037112  10.0685097
  36.0623813  43.4929567   9.4555259  35.7964267  43.6879643  10.9330630
  34.2874281  35.7829045  25.1907915  33.6114918  35.6823175  25.8610290
  35.1101915  35.6268259  25.6543912  26.0353140  42.0200982  17.8120430
  26.6206577  41.2744670  17.9448335  25.8377978  42.3304938  18.6957094
  28.8891795  45.0552229  12.8282873  28.2202170  45.5398357  12.3446913
  28.7504665  45.3021450  13.7426251  20.6270795  34.5906582  16.5324874
  20.6654894  34.0570173  17.3261992  20.1211087  34.0641787  15.9135851
  33.0297064  47.0895973  19.4265531  33.5815372  47.2527594  20.1914616
  33.3703257  47.6800410  18.7545556  28.0061557  29.4371122  20.0287416
  28.0702883  30.2985953  19.6164814  27.9428677  28.8245124  19.2959774
  27.4813829  31.5094255  23.6760450  28.1085868  31.1271332  24.2897974
  26.6241748  31.2908457  24.0416143  37.8807938  41.9157230  25.2814186
  38.4247842  42.5287188  24.7869140  37.2994783  42.4736809  25.7981199
  24.2579372  33.3170684   9.6078805  24.5532813  32.4081363   9.5545859
  23.3567408  33.2958424   9.2859807  36.1665451  45.0377948  16.4129213
  36.0416590  44.2367688  15.9040159  36.8244542  45.5324142  15.9243183
  27.7873619  31.3926681  15.5906353  27.0660205  32.0062648  15.4513827
  28.5766875  31.9284446  15.5122999  38.2300359  42.8386968  18.0408763
  37.2830695  42.7192319  17.9687090  38.5783132  41.9509466  18.1235025
  25.9867214  30.9984782   9.7318130  25.6579920  30.1182161   9.5493236
  26.3406584  30.9432450  10.6194519  35.2346793  42.6339684  14.2413116
  35.0871755  41.7056392  14.4220686  36.0600286  42.6559775  13.7570191
  29.1009037  31.2857752  10.0993608  29.4405109  31.8143673   9.3772216
  29.5481157  31.6238158  10.8752174  38.8380914  43.4568243  15.3277988
  39.7627462  43.2511105  15.1902439  38.6696218  43.2084644  16.2367330
  31.7952478  29.6694802  19.5496676  31.4549298  28.8702615  19.9517356
  31.0891484  29.9696513  18.9773509  32.4468949  26.7544115  18.0023999
  33.2695019  26.2804593  17.8802889  32.6907013  27.5334598  18.5022685
  31.0877184  29.7832373   8.2986900  31.8085546  30.1613626   7.7950617
  30.4642488  30.5021250   8.4021878  35.2308307  30.4877522   9.2345233
  35.4471921  31.3702160   8.9334061  34.7502374  30.0963736   8.5050875
  29.9707528  33.4463235  15.8115977  29.8252109  33.7603538  16.7040259
  29.4932732  34.0648136  15.2586876  31.8303911  30.4365783  15.8596867
  31.8165480  29.5406877  15.5229165  32.5476339  30.4436447  16.4935153
  33.6830042  30.8703124  17.9049994  33.4247820  31.7920194  17.9034325
  33.1515082  30.4733558  18.5950459  38.6276231  43.9753911  10.6840080
  38.8013108  43.4100333   9.9313932  39.1205122  44.7754806  10.5019570
  24.4453190  35.9868580  18.7503639  23.9006658  36.7628388  18.8823913
  25.3232540  36.3339384  18.5922760  31.2340807  29.3180164  11.1284437
  31.3556718  28.3896810  11.3275325  30.9442849  29.3318850  10.2162753
  34.1031997  27.0035074  14.2651157  34.1253694  27.0674407  13.3103137
  34.5200056  26.1639583  14.4591663  44.4815622  36.7390334  12.3030380
  44.9246768  35.9897659  11.9049503  43.6042132  36.7300470  11.9204112
  39.6151403  43.2920675   7.7836978  40.3102308  43.9127368   8.0024293
  39.9574553  42.4416026   8.0589356  25.2319212  35.1138476  21.6433795
  24.4900948  35.2621111  22.2298426  24.9111957  35.3746742  20.7800545
  41.5142826  40.7420381   9.3124309  42.0394150  41.0807653   8.5873629
  41.4265179  39.8067396   9.1287443  33.1762875  44.6554454  21.4414185
  33.4850001  44.4103601  22.3136885  33.9738357  44.8601093  20.9533056
  33.1983487  46.8092364  13.6719562  32.7588477  46.3168743  14.3652419
  33.9491604  46.2665332  13.4311637  25.6775826  43.0003905  13.6744190
  26.5033846  42.7007677  13.2942834  25.3269878  42.2311527  14.1233979
  30.6457359  42.3530373  15.7441864  30.0237368  41.6901078  15.4444092
  31.3162226  42.3791505  15.0615511  23.8784431  40.9190231  14.6333124
  23.0416339  40.4912406  14.4517125  23.8508076  41.1122675  15.5703915
  41.2036732  41.3753284  24.6175507  40.4132276  41.3577423  24.0780006
  40.9670087  41.9141578  25.3724543  41.3234607  38.2245751  21.9308235
  41.3732612  38.0595758  22.8723758  41.2148531  37.3573010  21.5406116
  30.2070866  40.9034296   9.2200324  30.3558986  41.5869761   8.5666997
  31.0137309  40.8839386   9.7349780  38.6138370  34.2076679  23.2467542
  39.5148232  34.0683143  22.9551540  38.6886344  34.3731133  24.1865719
  32.9481175  31.5843533  22.0920728  32.0784484  31.8777099  21.8203317
  33.1840655  32.1683978  22.8127992  42.8252804  40.6442692  22.1750257
  42.5337612  41.0072673  23.0113718  42.2124935  39.9309700  21.9963589
  44.0248486  38.2095572  14.6952827  44.8595378  38.6485376  14.8590387
  44.1607615  37.7334225  13.8761073  41.0739992  35.7675307  20.6430315
  41.5494114  35.9602953  19.8349166  40.1505558  35.8234493  20.3973699
  27.9623499  36.9299474  10.2261393  27.7169541  36.0261804  10.4241603
  28.1319414  36.9316624   9.2840871  35.6520209  27.8023150  19.6086149
  36.1702153  28.5384177  19.2832637  35.2975342  28.1087144  20.4432908
  27.2319147  32.6627832   7.7247555  26.5388391  32.7372186   7.0687591
  26.9870898  31.8988175   8.2469072  35.9032803  24.2223433  15.1287045
  36.1834557  23.5546622  15.7547472  36.6883410  24.4152528  14.6161709
  33.7066272  43.3982427   6.6912072  33.1340239  44.0172614   6.2382544
  34.2799065  43.9481788   7.2251994  39.7741661  32.6441067  18.8758620
  40.7259084  32.7439165  18.8970844  39.6045112  31.8519335  19.3856705
  37.7956041  29.7296650  19.0618021  37.2005973  30.0101663  18.3664510
  37.5105738  30.2190551  19.8334762  36.9263531  43.6819577   7.8220654
  37.8594204  43.6165139   8.0253529  36.8386744  44.5175844   7.3635187
  42.2529739  35.8647187  17.9900920  42.2206059  34.9263187  18.1760604
  42.8630363  35.9431223  17.2566745  34.0913070  34.7343240   4.0328124
  35.0372175  34.6049448   4.1016542  33.7127315  33.9957901   4.5097552
  42.4024228  32.6558230  18.0359203  41.8863276  31.8716687  17.8489132
  43.2864176  32.3276947  18.2005723  40.0634955  26.3999246  13.9955016
  39.8659776  26.0914334  14.8798348  40.6734660  27.1260884  14.1252946
  48.0706289  36.9263193  17.1306957  48.8009678  36.6648482  17.6914660
  47.4613235  36.1891915  17.1709025  46.1521586  35.0671056  17.7281408
  45.4254750  34.9327021  17.1197900  45.7368873  35.3747885  18.5338126
  33.9751763  38.7860986  25.4928781  34.8954772  38.9639585  25.6868828
  33.9401346  37.8417031  25.3408480  32.2755987  32.6593216   3.9683009
  31.3687443  32.3626329   4.0445723  32.5531968  32.3623034   3.1017296
  23.1933928  33.9799579  14.4182056  22.8736712  33.1264887  14.1256430
  22.6467356  34.1948157  15.1740023  26.9713835  36.6962020  18.1351562
  27.1899845  37.6279128  18.1539596  27.3839609  36.3369995  18.9206366
  33.8918053  27.2030106  10.1227251  33.0818781  26.8577191  10.4982497
  34.5802470  26.8937649  10.7114862  35.8208601  26.2808152  11.7451547
  36.3739640  26.7003606  12.4041570  36.0578688  25.3543901  11.7874503
  31.0454772  29.5180151   4.1094989  31.9073936  29.8435049   4.3690806
  31.2305116  28.7311647   3.5968054  23.0622188  37.6002491  16.3875177
  22.3685659  37.1856444  15.8745132  23.8095179  37.6423027  15.7908596
  39.1987408  28.3908678  11.2530212  38.6186077  29.0493482  10.8708264
  38.9323341  27.5686022  10.8417629  37.6490975  27.7913735  13.4551532
  38.1490753  27.9030270  12.6465851  38.2926583  27.4874788  14.0952340
  31.7072971  35.6992365  26.3419373  31.2240052  36.4992725  26.5483262
  31.7933910  35.7100310  25.3886817  24.9758930  37.5320745  14.2641192
  24.9529618  37.6308432  13.3123075  25.2859567  38.3785895  14.5858358
  27.6346308  39.5896900  18.3787807  28.5889562  39.5580842  18.3117738
  27.4358832  39.1287523  19.1938033  28.2245690  38.1598016  20.9458604
  29.0438579  38.6542094  20.9693442  28.4982498  37.2429984  20.9176172
  37.9812286  30.5508768  10.3086560  37.0938141  30.8358419  10.0906755
  38.3966275  30.3902531   9.4613837  41.3326822  30.5755289  14.0240899
  42.1087213  31.0651741  14.2965516  40.6074957  31.0013343  14.4812769
  43.7699381  31.2882908  15.0814840  44.3643872  31.0478644  14.3708148
  43.8425965  30.5690039  15.7088376  25.9896537  45.1316519  15.3958005
  25.8551005  44.3716920  14.8296003  25.5728599  45.8557419  14.9286793
  37.9553310  36.0663304  10.5236850  37.8988511  36.5231855   9.6844482
  38.5081653  35.3053988  10.3459693  41.7658116  31.8553036  11.3486969
  41.5095050  31.4549671  12.1795177  41.1410984  32.5696830  11.2237109
  46.0770454  34.5949109  13.8558261  45.5170012  34.6642298  14.6289823
  45.4713957  34.4190094  13.1357757  29.1465663  46.0285836  15.6076447
  29.0298047  46.9731269  15.5055137  28.3258109  45.7259398  15.9962246
  39.0342197  40.7535972   6.4533040  39.8687801  40.3217170   6.2710515
  38.8726540  40.5817986   7.3809934  38.6888089  37.2568085   7.8189379
  38.6336893  37.0912357   6.8777823  38.0634145  37.9644118   7.9751569
  23.4780604  32.4936150  21.6450801  24.1239468  31.9835103  22.1338027
  23.2697755  33.2304831  22.2194227  36.0033997  39.5616997  27.1442942
  36.8725156  39.7357649  26.7829577  35.5240748  40.3811414  27.0218671
  31.9984215  26.7576194   7.3974698  31.9862885  27.7018034   7.5542968
  32.8907637  26.5746340   7.1034159  30.1720177  46.6814098  18.8232376
  31.0747423  46.7137708  19.1398871  29.9457547  45.7514549  18.8378711
  31.9273779  45.4345085  15.4842454  30.9769410  45.4346946  15.3706827
  32.2306265  44.6877819  14.9678489  35.8136334  23.3518971  11.6520634
  35.0468730  22.7977457  11.7977317  36.2247039  23.4240840  12.5134786
  47.6626472  51.2705623  16.5488217  48.3004882  51.1512370  15.8451557
  47.5447315  52.2186467  16.6076169  44.4716179  51.2233051  16.4849741
  44.1334690  51.1074116  15.5970276  45.3405947  50.8224216  16.4650747
  44.9535962  52.3767903  22.4435947  44.9424602  51.9820701  21.5716450
  45.1156601  51.6433975  23.0369718  37.8767426  54.5719719  15.3130853
  38.6688718  54.2310544  14.8977152  38.1164076  54.6814694  16.2333006
  41.6743223  55.1605015  21.3915131  41.3833089  56.0650645  21.2761797
  42.3100207  55.2021542  22.1059200  42.5999430  52.5381863  17.9816490
  43.1963002  52.3137885  17.2673453  42.6574401  51.7966609  18.5841938
  50.1401588  42.6453884  18.9869012  49.8084913  43.5149295  18.7630227
  49.5447202  42.3290168  19.6663042  40.0845589  51.2980227  14.4201629
  39.1596086  51.1656441  14.6279321  40.3330002  52.0774446  14.9171571
  50.0330252  47.3648970  16.0662362  49.1247129  47.2964379  15.7721123
  49.9817847  47.8420915  16.8944187  37.4454400  50.9413500  15.2545418
  37.5746781  51.1947979  16.1684830  36.7651852  51.5341208  14.9350073
  44.1071117  48.7838616  24.0097259  43.3304451  49.3432536  24.0000124
  44.7461680  49.2695399  24.5312129  51.8991898  45.5665409  17.8440236
  51.2566278  45.8597942  17.1980030  51.3946826  45.4518329  18.6493432
  42.3617490  51.5924069  23.5715226  43.1032174  52.1309113  23.2950050
  41.6554475  52.2190358  23.7286778  47.8372829  53.7353210  22.1687388
  48.2456185  53.2935620  21.4242020  47.1150091  53.1605837  22.4221580
  44.1903899  48.6725816  19.5420945  45.0365095  49.0965230  19.6855594
  44.1302537  48.0159441  20.2359508  47.3403345  46.3330185  21.2002118
  47.0964277  47.0872245  20.6636394  47.6163275  46.7115532  22.0349365
  46.8968036  45.4886618  16.7815956  46.0352515  45.7867871  17.0732693
  46.9230471  45.7057017  15.8496989  40.6053687  53.5800290  16.1269525
  41.1755044  54.0087558  15.4887009  41.1961799  53.2982875  16.8253710
  41.0978853  48.7463717  24.3730536  40.4677514  49.4279998  24.6065933
  40.9914941  48.6346799  23.4283674  36.3923826  48.4135513  15.2996460
  35.6022880  48.6693042  14.8236571  36.8835073  49.2283851  15.4048501
  38.3438571  48.7780093  12.2579937  37.5469734  48.8898787  12.7763433
  38.1164163  49.1166745  11.3920827  44.1744239  55.3024796  20.2062452
  44.2388671  55.7645203  21.0420623  43.4655163  54.6722161  20.3344761
  34.6761529  48.6666004  17.7311451  34.9269567  49.5513014  17.9969027
  35.2121077  48.4870605  16.9586543  40.3759596  43.0484483  26.7355787
  39.9826542  42.4950682  27.4103431  41.1925736  43.3595062  27.1262305
  43.2927557  44.4642362  24.3276044  44.0337270  45.0649515  24.2480506
  43.5245480  43.7220000  23.7694086  38.4368895  49.6498730  22.6054273
  38.3222410  48.7483987  22.9061372  37.5813413  49.8962426  22.2539090
  40.2747854  59.1212271  18.7302453  40.8255279  58.9929335  17.9579446
  39.4359330  59.4207161  18.3797345  44.0715025  55.3863399  23.0746684
  44.6043362  54.6251687  22.8445992  43.5429106  55.0937051  23.8170838
  47.2384720  40.4923465  18.6040325  46.8948989  41.3825107  18.5279436
  47.6063683  40.3025123  17.7409910  44.7882114  45.3281777  12.1697999
  43.9323710  44.9388628  11.9903638  45.2009066  45.4073738  11.3097784
  46.3181260  42.8628120  16.5689559  45.8146056  42.8258256  15.7557364
  46.6111867  43.7720863  16.6286215  42.5624146  42.9466850  15.5755740
  43.4277143  42.7509659  15.2161630  42.6301655  42.7177202  16.5025097
  40.1686465  45.1769058  12.9472107  40.7430217  44.9544240  12.2145300
  40.7557448  45.2457753  13.7000708  42.4709133  42.0510307  11.6747177
  41.8173545  41.7359324  11.0503791  42.4289607  41.4286047  12.4007000
  45.7046873  48.5392241  15.9994824  44.7869435  48.7607188  15.8416512
  46.1207017  48.6138551  15.1406532  49.0372386  39.7517024  13.7058063
  49.3431263  38.8914388  13.4183978  49.7624991  40.3434645  13.5057057
  35.3296742  50.1547711  12.0939661  35.1321142  49.5617072  11.3690728
  34.7743406  49.8499921  12.8115600  43.3093465  50.0470818  14.2134254
  43.3642075  49.0944654  14.1376731  42.4984667  50.2030257  14.6975553
  41.2485825  48.6647877  11.9724633  40.4353691  48.9642048  12.3789825
  41.7444820  48.2703566  12.6899115  46.8460037  49.1289702  20.8039527
  47.2009425  49.3561175  21.6633993  47.4932168  49.4608079  20.1816782
  40.7399900  46.2366233  17.5885868  41.3799279  46.0954992  16.8908831
  39.9077431  45.9500746  17.2124470  37.7428517  46.2066558  12.3658855
  38.0035334  47.1211891  12.2568015  38.5645689  45.7391000  12.5155468
  39.2153442  47.6204315  19.5357679  39.8876495  47.4121677  18.8870328
  38.3883228  47.4226401  19.0962912  45.1179014  44.2466256  21.5523340
  44.4706929  44.9456206  21.4587817  45.8880029  44.6802400  21.9199588
  45.2943148  52.0847021  19.6120160  46.2235208  52.2358180  19.4389127
  44.8734178  52.1731042  18.7568806  44.0931480  56.1097685  17.3818698
  43.9542566  55.7416470  18.2544636  43.3046076  56.6245325  17.2102655
  39.6180939  50.8946918  20.2960116  39.4800737  50.1627157  20.8971656
  40.5285863  50.8055818  20.0144304  42.2463240  50.6066877  19.7843796
  42.9562858  49.9660069  19.7430415  42.2032548  50.8579772  20.7069977
  40.9592174  47.5932095  21.6039436  40.4229531  47.1422834  22.2561032
  40.3708882  47.7278004  20.8609900  31.8896573  51.8397906  14.2607406
  32.5767613  51.5259636  13.6728422  31.7344702  52.7439271  13.9874658
  36.6931295  46.7288103  18.6892430  36.6089484  46.1213772  17.9542840
  35.8714001  47.2197121  18.6901926  46.8655009  45.2141666  14.0562625
  47.3623708  44.4611629  13.7363695  46.0941990  45.2505983  13.4905834
  43.4489978  47.3559049  13.7834310  43.0787765  46.8030090  14.4715215
  43.9449070  46.7517183  13.2309310  49.3074004  42.1811260  16.2041984
  48.3937083  42.4115487  16.3724191  49.7367105  42.2649704  17.0556016
  49.0780462  50.3701152  18.7041878  48.4251912  50.6177059  18.0494331
  49.4560842  49.5565290  18.3704355  45.1268035  51.1120963  25.1907915
  44.4508672  51.0115092  25.8610290  45.9495669  50.9560177  25.6543912
  36.8746894  57.3492899  17.8120430  37.4600331  56.6036587  17.9448335
  36.6771733  57.6596856  18.6957094  31.4664549  49.9198500  16.5324874
  31.5048649  49.3862090  17.3261992  30.9604842  49.3933705  15.9135851
  38.8455311  44.7663040  20.0287416  38.9096638  45.6277871  19.6164814
  38.7822432  44.1537042  19.2959774  38.3207584  46.8386173  23.6760450
  38.9479623  46.4563250  24.2897974  37.4635503  46.6200375  24.0416143
  35.0973127  48.6462602   9.6078805  35.3926568  47.7373280   9.5545859
  34.1961162  48.6250341   9.2859807  38.6267374  46.7218598  15.5906353
  37.9053959  47.3354566  15.4513827  39.4160629  47.2576363  15.5122999
  41.4293687  44.0573025  21.8647005  41.9528089  44.3035321  22.6273315
  41.2106020  44.8893060  21.4450143  36.8260968  46.3276699   9.7318130
  36.4973674  45.4474078   9.5493236  37.1800339  46.2724368  10.6194519
  42.6346232  44.9986720  19.5496676  42.2943053  44.1994533  19.9517356
  41.9285238  45.2988431  18.9773509  43.2862704  42.0836032  18.0023999
  44.1088773  41.6096511  17.8802889  43.5300768  42.8626516  18.5022685
  40.8101283  48.7755153  15.8115977  40.6645863  49.0895456  16.7040259
  40.3326486  49.3940053  15.2586876  42.6697666  45.7657701  15.8596867
  42.6559234  44.8698794  15.5229165  43.3870094  45.7728365  16.4935153
  44.5223796  46.1995041  17.9049994  44.2641574  47.1212112  17.9034325
  43.9908837  45.8025476  18.5950459  35.2846945  51.3160497  18.7503639
  34.7400413  52.0920305  18.8823913  36.1626295  51.6631302  18.5922760
  42.0734562  44.6472081  11.1284437  42.1950473  43.7188727  11.3275325
  41.7836604  44.6610767  10.2162753  44.9425752  42.3326992  14.2651157
  44.9647449  42.3966325  13.3103137  45.3593811  41.4931500  14.4591663
  36.0712967  50.4430394  21.6433795  35.3294703  50.5913029  22.2298426
  35.7505711  50.7038659  20.7800545  34.7178185  56.2482149  14.6333124
  33.8810094  55.8204323  14.4517125  34.6901831  56.4414592  15.5703915
  41.5575641  46.1604079  25.3374370  41.6063797  47.0366201  24.9552139
  42.0998155  45.6181472  24.7646013  49.4532124  49.5368596  23.2467542
  50.3541987  49.3975061  22.9551540  49.5280099  49.7023051  24.1865719
  43.7874930  46.9135451  22.0920728  42.9178239  47.2069017  21.8203317
  44.0234410  47.4975896  22.8127992  46.4913963  43.1315068  19.6086149
  47.0095907  43.8676095  19.2832637  46.1369096  43.4379061  20.4432908
  46.7426558  39.5515351  15.1287045  47.0228311  38.8838540  15.7547472
  47.5277164  39.7444446  14.6161709  50.6135416  47.9732985  18.8758620
  51.5652839  48.0731082  18.8970844  50.4438866  47.1811253  19.3856705
  48.6349795  45.0588568  19.0618021  48.0399727  45.3393580  18.3664510
  48.3499492  45.5482469  19.8334762  53.2417982  47.9850148  18.0359203
  52.7257031  47.2008604  17.8489132  54.1257931  47.6568864  18.2005723
  50.9028709  41.7291163  13.9955016  50.7053530  41.4206251  14.8798348
  51.5128415  42.4552802  14.1252946  44.8145517  54.1152903  25.4928781
  45.7348527  54.2931502  25.6868828  44.7795100  53.1708949  25.3408480
  34.0327682  49.3091497  14.4182056  33.7130466  48.4556805  14.1256430
  33.4861110  49.5240075  15.1740023  37.8107590  52.0253938  18.1351562
  38.0293599  52.9571046  18.1539596  38.2233363  51.6661912  18.9206366
  44.7311807  42.5322023  10.1227251  43.9212536  42.1869108  10.4982497
  45.4196224  42.2229567  10.7114862  46.6602356  41.6100070  11.7451547
  47.2133394  42.0295524  12.4041570  46.8972442  40.6835818  11.7874503
  42.6835455  47.5987144  27.5254311  42.5832182  48.5481501  27.4566402
  42.4656997  47.2705383  26.6530381  33.9015942  52.9294408  16.3875177
  33.2079414  52.5148361  15.8745132  34.6488933  52.9714945  15.7908596
  48.4884729  43.1205653  13.4551532  48.9884508  43.2322187  12.6465851
  49.1320337  42.8166706  14.0952340  42.5466725  51.0284283  26.3419373
  42.0633807  51.8284643  26.5483262  42.6327664  51.0392227  25.3886817
  35.8152685  52.8612662  14.2641192  35.7923373  52.9600350  13.3123075
  36.1253321  53.7077813  14.5858358  38.4740062  54.9188817  18.3787807
  39.4283316  54.8872760  18.3117738  38.2752586  54.4579441  19.1938033
  39.0639445  53.4889933  20.9458604  39.8832334  53.9834012  20.9693442
  39.3376252  52.5721901  20.9176172  34.3174359  47.8228067  21.6450801
  34.9633222  47.3127021  22.1338027  34.1091510  48.5596749  22.2194227
  46.6530089  38.6810888  11.6520634  45.8862485  38.1269375  11.7977317
  47.0640794  38.7532757  12.5134786  38.6571850  44.9695684  25.7425816
  39.5203311  44.6132489  25.9529140  38.0837260  44.6309579  26.4301220
  28.5562511   3.8912518   9.4295682  28.4975057   3.2071738   8.7626265
  28.9582029   4.6331508   8.9776308  27.0414185   3.5927435  12.0059492
  27.5854089   4.2057393  11.5114447  26.4601030   4.1507013  12.5226505
  30.3642979   3.0523489  11.3420813  29.5738523   3.0347628  10.8025313
  30.1276334   3.5911783  12.0969850  31.9859051   2.3212897   8.8995563
  31.6943859   2.6842878   9.7359024  31.3731182   1.6079905   8.7208896
  25.1640243   1.2387202  13.8688249  26.0331403   1.4127854  13.5074883
  24.6846995   2.0581619  13.7463978  36.8232719  12.9475828   3.2733523
  37.4611129  12.8282575   2.5696863  36.7053562  13.8956672   3.3321475
  33.6322425  12.9003256   3.2095048  33.2940937  12.7844321   2.3215583
  34.5012194  12.4994421   3.1896054  34.1142208  14.0538108   9.1681253
  34.1030849  13.6590906   8.2961757  34.2762848  13.3204180   9.7615025
  30.8349469  16.8375219   8.1160437  30.5439335  17.7420850   8.0007104
  31.4706454  16.8791747   8.8304507  31.7605676  14.2152068   4.7061797
  32.3569249  13.9908090   3.9918760  31.8180648  13.4736813   5.3087245
  39.3007835   4.3224089   5.7114318  38.9691160   5.1919500   5.4875533
  38.7053448   4.0060373   6.3908349  35.7939355  16.5236635   5.1110231
  35.4940078  17.4261674   5.0026038  35.4490414  16.2568818   5.9631384
  39.1936498   9.0419175   2.7907668  38.2853376   8.9734584   2.4966429
  39.1424094   9.5191120   3.6189494  30.7760134  23.2880955  -1.9218801
  30.6984164  24.2388780  -1.8430321  30.1721778  22.9426828  -1.2643875
  33.2677364  10.4608821  10.7342566  32.4910698  11.0202741  10.7245430
  33.9067927  10.9465604  11.2557436  31.5223736  13.2694274  10.2960533
  32.2638421  13.8079318  10.0195356  30.8160722  13.8960563  10.4532085
  36.9979076  15.4123415   8.8932694  37.4062432  14.9705825   8.1487327
  36.2756338  14.8376042   9.1466887  33.3510146  10.3496021   6.2666251
  34.1971341  10.7735435   6.4100900  33.2908784   9.6929646   6.9604814
  37.3207891  15.9724605   2.6484983  36.6916753  16.1370319   1.9461051
  36.9333553  16.3866215   3.4195947  41.1997123  16.9079043   0.0029347
  40.5148161  17.2877944  -0.5473620  41.2840972  17.5174370   0.7361295
  36.5009591   8.0100390   7.9247425  36.2570523   8.7642450   7.3881700
  36.7769522   8.3885737   8.7594672  38.4548054  14.5539002   6.6024690
  38.6664949  15.1970762   5.9259071  38.4077802  13.7201319   6.1346620
  29.7659934  15.2570495   2.8514831  30.3361291  15.6857763   2.2132316
  30.3568045  14.9753080   3.5499017  30.2585100  10.4233922  11.0975843
  29.6283761  11.1050203  11.3311240  30.1521188  10.3117004  10.1528981
  39.5693882  17.4310958   4.7747048  40.3911326  17.0291145   4.4929729
  39.5656285  17.3279192   5.7263164  33.3350486  16.9795001   6.9307758
  33.3994918  17.4415408   7.7665930  32.6261409  16.3492366   7.0590068
  29.5365843   4.7254688  13.4601094  29.1432788   4.1720887  14.1348738
  30.3531983   5.0365267  13.8507611  32.4533804   6.1412567  11.0521350
  33.1943517   6.7419720  10.9725813  32.6851727   5.3990205  10.4939393
  27.5975142  11.3268935   9.3299580  27.4828657  10.4254192   9.6306679
  26.7419660  11.5732631   8.9784397  34.6766980  19.2686675  10.9287081
  34.2330834  18.4823053  10.6107985  35.3384193  19.4565825  10.2630971
  29.4354101  20.7982476   5.4547759  29.9861526  20.6699540   4.6824753
  28.5965577  21.0977365   5.1042652  36.7748218  19.5489475   8.9568482
  36.7566693  20.3698356   8.4648751  37.6968138  19.4243550   9.1818623
  33.2321272  17.0633604   9.7991990  33.7649609  16.3021892   9.5691298
  32.7035353  16.7707256  10.5416145  39.5766831  14.3868617   2.4277849
  38.9190505  15.0767879   2.5157977  40.3807230  14.7765049   2.7711835
  34.8653120  10.2162445   2.7240131  33.9475682  10.4377392   2.5661819
  35.2813264  10.2908756   1.8651838  39.1534086  17.7218991  -1.3939067
  38.6996413  16.8809901  -1.3373877  38.5228052  18.3580390  -1.0564287
  37.5967025  19.5595488  -0.4589249  37.8889999  20.1200545  -1.1776883
  38.1065645  19.8524049   0.2963910  32.5600650  20.3375839   0.6304204
  32.5176829  20.5636685  -0.2987264  33.4763349  20.1039214   0.7790005
  36.0066284  10.8059907   7.5284834  36.3615672  11.0331380   8.3879299
  36.6538415  11.1378283   6.9062089  41.7633400  15.9954870   3.2445434
  42.1969907  15.9030159   4.0928488  42.4764981  15.9712370   2.6065450
  35.4961295  19.5956964   4.7778535  35.5498318  20.1647900   5.5456251
  34.6276077  19.7658849   4.4132572  28.3759689   9.2974520   6.2602986
  29.0482742   9.0891882   5.6115635  27.5489475   9.0996606   5.8208218
  42.6248950  16.0378570   5.7778319  42.8184840  16.9424381   6.0237594
  42.5249568  15.5785989   6.6116905  34.2785261   5.9236461   8.2768647
  33.6313176   6.6226410   8.1833123  35.0486276   6.3572605   8.6444895
  37.6864059  16.1885313  11.3519200  37.5349565  15.9595865  10.4349284
  37.6768738  17.1455914  11.3650545  34.4549395  13.7617226   6.3365467
  35.3841455  13.9128385   6.1634434  34.0340425  13.8501246   5.4814113
  33.2537727  17.7867890   4.1064004  33.1148813  17.4186675   4.9789942
  32.4652323  18.3015530   3.9347962  33.8485879  22.8876987  -4.5510459
  34.0237634  22.4165030  -3.7364837  33.1618667  23.5142753  -4.3229199
  34.8042942  17.1649493   1.4952842  34.4692775  17.1250263   2.3910492
  34.3046888  16.4994209   1.0223252  28.7787186  12.5717123   7.0205423
  28.6406984  11.8397362   7.6216962  29.6892109  12.4826023   6.7389611
  31.4069487  12.2837082   6.5089103  32.1169105  11.6430274   6.4675721
  31.3638795  12.5349977   7.4315284  39.3956265  19.2204436   9.4295682
  39.3368811  18.5363656   8.7626265  39.7975784  19.9623426   8.9776308
  30.1198421   9.2702300   8.3284742  29.5835778   8.8193039   8.9806339
  29.5315129   9.4048209   7.5855207  28.4146964  26.0366349   2.2229401
  28.6543562  26.6684874   2.9008419  27.5716161  25.6854389   2.5094760
  39.3973673  17.1844019   7.6609662  38.5100451  16.8469941   7.7836060
  39.9672224  16.4527051   7.8978427  32.9274826  21.8445472   4.6270905
  32.8544997  22.6500443   5.1390209  32.4852219  22.0437438   3.8018926
  32.7164606  21.0817242  -1.8626274  31.9332127  21.6238922  -1.7688049
  33.4157351  21.5991221  -1.4632032  35.3873509  21.7432306   6.7829063
  36.1001482  22.3779771   6.7104965  34.8963538  21.8396172   5.9669065
  30.4385423  19.4926749   7.6034634  31.1394882  20.1263232   7.7564029
  29.9680538  19.8341481   6.8430274  38.2386709  12.0471357   5.4287185
  37.5858159  12.2947264   4.7739637  38.6167089  11.2335495   5.0949662
  35.1993883  22.0831050  -0.4684645  35.3816277  21.2652706  -0.0056893
  36.0226869  22.2998742  -0.9059755  35.5336048  21.0099235  -3.2069597
  36.0623815  20.4991690  -3.8199434  35.7964268  20.6941765  -2.3424064
  34.2874282  12.7891168  11.9153222  33.6114919  12.6885297  12.5855597
  35.1101916  12.6330382  12.3789219  26.0353141  19.0263104   4.5365737
  26.6206578  18.2806792   4.6693641  25.8377979  19.3367061   5.4202401
  28.8891796  22.0614352  -0.4471821  28.2202172  22.5460479  -0.9307781
  28.7504666  22.3083572   0.4671558  33.0297065  24.0958095   6.1510838
  33.5815373  24.2589717   6.9159923  33.3703258  24.6862533   5.4790863
  27.4813831   8.5156378  10.4005757  28.1085869   8.1333455  11.0143281
  26.6241749   8.2970580  10.7661449  37.8807939  18.9219353  12.0059492
  38.4247843  19.5349311  11.5114447  37.2994784  19.4798931  12.5226505
  36.1665452  22.0440071   3.1374520  36.0416592  21.2429811   2.6285465
  36.8244543  22.5386264   2.6488490  38.2300361  19.8449091   4.7654070
  37.2830696  19.7254442   4.6932397  38.5783134  18.9571589   4.8480331
  30.5899934   5.7343230   8.5892312  31.1134336   5.9805526   9.3518621
  30.3712267   6.5663265   8.1695449  35.2346794  19.6401807   0.9658422
  35.0871756  18.7118514   1.1465992  36.0600287  19.6621898   0.4815497
  38.8380916  20.4630366   2.0523295  39.7627463  20.2573227   1.9147746
  38.6696219  20.2146767   2.9612636  31.7952479   6.6756925   6.2741982
  31.4549299   5.8764738   6.6762662  31.0891485   6.9758636   5.7018816
  33.6830043   7.8765246   4.6295301  33.4247821   8.7982317   4.6279631
  33.1515083   7.4795681   5.3195765  38.6276232  20.9816033  -2.5914614
  38.8013109  20.4162456  -3.3440761  39.1205123  21.7816928  -2.7735124
  24.4453192  12.9930702   5.4748945  23.9006660  13.7690510   5.6069220
  25.3232542  13.3401507   5.3168067  25.2319214  12.1200599   8.3679102
  24.4900950  12.2683234   8.9543733  24.9111958  12.3808864   7.5045852
  33.1762876  21.6616577   8.1659492  33.4850003  21.4165724   9.0382192
  33.9738358  21.8663215   7.6778362  33.1983488  23.8154486   0.3964869
  32.7588479  23.3230865   1.0897725  33.9491605  23.2727454   0.1556944
  25.6775827  20.0066027   0.3989497  26.5033847  19.7069799   0.0188140
  25.3269879  19.2373650   0.8479285  30.6457360  19.3592496   2.4687170
  30.0237370  18.6963201   2.1689398  31.3162227  19.3853627   1.7860818
  30.7181888   7.8374284  12.0619676  30.7670043   8.7136406  11.6797446
  31.2604402   7.2951677  11.4891320  41.2036734  18.3815407  11.3420813
  40.4132277  18.3639546  10.8025313  40.9670088  18.9203701  12.0969850
  41.3234609  15.2307873   8.6553542  41.3732614  15.0657881   9.5969065
  41.2148532  14.3635132   8.2651423  38.6138371  11.2138801   9.9712849
  39.5148234  11.0745266   9.6796846  38.6886345  11.3793256  10.9111026
  32.9481176   8.5905656   8.8166035  32.0784486   8.8839222   8.5448624
  33.1840657   9.1746101   9.5373299  42.8252805  17.6504815   8.8995563
  42.5337614  18.0134795   9.7359024  42.2124937  16.9371823   8.7208896
  41.0739994  12.7737429   7.3675621  41.5494115  12.9665076   6.5594473
  40.1505559  12.8296615   7.1219005  35.6520210   4.8085273   6.3331455
  36.1702154   5.5446300   6.0077944  35.2975343   5.1149266   7.1678214
  39.7741663   9.6503189   5.6003927  40.7259086   9.7501287   5.6216151
  39.6045113   8.8581458   6.1102011  37.7956042   6.7358773   5.7863328
  37.2005974   7.0163785   5.0909817  37.5105739   7.2252674   6.5580069
  42.2529740  12.8709309   4.7146227  42.2206061  11.9325310   4.9005911
  42.8630364  12.9493346   3.9812052  33.9751764  15.7923108  12.2174088
  34.8954773  15.9701707  12.4114134  33.9401347  14.8479154  12.0653787
  26.9713836  13.7024143   4.8596869  27.1899846  14.6341251   4.8784903
  27.3839610  13.3432117   5.6451673  31.8441702   9.2757349  14.2499618
  31.7438429  10.2251706  14.1811709  31.6263244   8.9475588  13.3775688
  31.7072972  12.7054487  13.0664679  31.2240053  13.5054848  13.2728569
  31.7933911  12.7162432  12.1132123  27.6346309  16.5959022   5.1033113
  28.5889563  16.5642965   5.0363045  27.4358833  16.1349646   5.9183339
  28.2245691  15.1660138   7.6703911  29.0438580  15.6604217   7.6938748
  28.4982499  14.2492106   7.6421478  25.9896538  22.1378642   2.1203311
  25.8551006  21.3779043   1.5541309  25.5728600  22.8619542   1.6532100
  29.1465664  23.0347959   2.3321754  29.0298048  23.9793391   2.2300444
  28.3258110  22.7321520   2.7207553  23.4780606   9.4998272   8.3696108
  24.1239469   8.9897226   8.8583333  23.2697757  10.2366954   8.9439533
  36.0033998  16.5679120  13.8688249  36.8725157  16.7419772  13.5074883
  35.5240749  17.3873536  13.7463978  30.1720178  23.6876221   5.5477682
  31.0747425  23.7199831   5.8644177  29.9457548  22.7576672   5.5624018
  31.9273780  22.4407207   2.2087761  30.9769411  22.4409069   2.0952133
  32.2306266  21.6939942   1.6923795  27.8178097   6.6465889  12.4671122
  28.6809558   6.2902694  12.6774447  27.2443507   6.3079784  13.1546527
  47.6626474  28.2767746   3.2733523  48.3004883  28.1574493   2.5696863
  47.5447316  29.2248589   3.3321475  44.4716180  28.2295174   3.2095048
  44.1334691  28.1136238   2.3215583  45.3405948  27.8286339   3.1896054
  44.9535963  29.3830025   9.1681253  44.9424604  28.9882824   8.2961757
  45.1156602  28.6496098   9.7615025  37.8767427  31.5781842   2.0376159
  38.6688719  31.2372666   1.6222459  38.1164078  31.6876817   2.9578313
  41.6743224  32.1667137   8.1160437  41.3833090  33.0712768   8.0007104
  42.3100208  32.2083665   8.8304507  42.5999431  29.5443986   4.7061797
  43.1963003  29.3200008   3.9918760  42.6574402  28.8028731   5.3087245
  50.1401589  19.6516007   5.7114318  49.8084914  20.5211418   5.4875533
  49.5447203  19.3352291   6.3908349  46.6333109  31.8528553   5.1110231
  46.3333832  32.7553591   5.0026038  46.2884169  31.5860736   5.9631384
  40.0845591  28.3042350   1.1446936  39.1596087  28.1718564   1.3524627
  40.3330004  29.0836569   1.6416878  50.0330253  24.3711093   2.7907668
  49.1247130  24.3026501   2.4966429  49.9817849  24.8483038   3.6189494
  37.4454402  27.9475623   1.9790725  37.5746783  28.2010102   2.8930136
  36.7651853  28.5403331   1.6595380  44.1071119  25.7900738  10.7342566
  43.3304453  26.3494659  10.7245430  44.7461682  26.2757521  11.2557436
  42.3617491  28.5986192  10.2960533  43.1032175  29.1371236  10.0195356
  41.6554476  29.2252481  10.4532085  47.8372831  30.7415332   8.8932694
  48.2456187  30.2997743   8.1487327  47.1150092  30.1667960   9.1466887
  44.1903901  25.6787939   6.2666251  45.0365096  26.1027353   6.4100900
  44.1302538  25.0221563   6.9604814  47.3403346  23.3392307   7.9247425
  47.0964278  24.0934368   7.3881700  47.6163276  23.7177655   8.7594672
  49.2941809  29.8830920   6.6024690  49.5058704  30.5262680   5.9259071
  49.2471557  29.0493236   6.1346620  46.8968038  22.4948740   3.5061263
  46.0352517  22.7929994   3.7978000  46.9230472  22.7119139   2.5742295
  40.6053688  30.5862413   2.8514831  41.1755045  31.0149681   2.2132316
  41.1961800  30.3044997   3.5499017  41.0978855  25.7525840  11.0975843
  40.4677515  26.4342121  11.3311240  40.9914943  25.6408922  10.1528981
  36.3923827  25.4197636   2.0241767  35.6022881  25.6755165   1.5481878
  36.8835074  26.2345974   2.1293807  38.3438572  25.7842215  -1.0174756
  37.5469736  25.8960910  -0.4991261  38.1164165  26.1228867  -1.8833866
  44.1744240  32.3086918   6.9307758  44.2388673  32.7707326   7.7665930
  43.4655164  31.6784283   7.0590068  34.6761530  25.6728126   4.4556758
  34.9269568  26.5575136   4.7214334  35.2121078  25.4932728   3.6831850
  40.3759597  20.0546606  13.4601094  39.9826543  19.5012804  14.1348738
  41.1925738  20.3657184  13.8507611  43.2927558  21.4704485  11.0521350
  44.0337272  22.0711638  10.9725813  43.5245481  20.7282123  10.4939393
  38.4368896  26.6560852   9.3299580  38.3222412  25.7546109   9.6306679
  37.5813414  26.9024549   8.9784397  45.5160734  34.5978592  10.9287081
  45.0724588  33.8114971  10.6107985  46.1777948  34.7857743  10.2630971
  40.2747855  36.1274394   5.4547759  40.8255280  35.9991457   4.6824753
  39.4359331  36.4269283   5.1042652  47.6141972  34.8781392   8.9568482
  47.5960448  35.6990273   8.4648751  48.5361892  34.7535468   9.1818623
  44.0715026  32.3925522   9.7991990  44.6043363  31.6313810   9.5691298
  43.5429107  32.0999174  10.5416145  46.3181262  19.8690243   3.2934865
  45.8146057  19.8320378   2.4802671  46.6111869  20.7782986   3.3531522
  42.5624148  19.9528973   2.3001047  43.4277144  19.7571781   1.9406936
  42.6301656  19.7239325   3.2270404  40.1686467  22.1831181  -0.3282586
  40.7430219  21.9606362  -1.0609393  40.7557449  22.2519875   0.4246015
  45.7046875  25.5454363   2.7240131  44.7869436  25.7669310   2.5661819
  46.1207018  25.6200674   1.8651838  35.3296743  27.1609834  -1.1815032
  35.1321143  26.5679194  -1.9063966  34.7743407  26.8562044  -0.4639094
  43.3093467  27.0532940   0.9379561  43.3642076  26.1006777   0.8622037
  42.4984669  27.2092379   1.4220859  41.2485827  25.6710000  -1.3030060
  40.4353692  25.9704170  -0.8964868  41.7444821  25.2765689  -0.5855578
  46.8460038  26.1351824   7.5284834  47.2009426  26.3623297   8.3879299
  47.4932170  26.4670201   6.9062089  40.7399901  23.2428355   4.3131175
  41.3799281  23.1017114   3.6154138  39.9077432  22.9562869   3.9369777
  37.7428518  23.2128680  -0.9095839  38.0035335  24.1274014  -1.0186678
  38.5645690  22.7453123  -0.7599226  39.2153443  24.6266438   6.2602986
  39.8876497  24.4183800   5.6115635  38.3883230  24.4288524   5.8208218
  45.1179015  21.2528378   8.2768647  44.4706930  21.9518328   8.1833123
  45.8880031  21.6864522   8.6444895  48.5257813  31.5177231  11.3519200
  48.3743320  31.2887782  10.4349284  48.5162493  32.4747832  11.3650545
  45.2943150  29.0909143   6.3365467  46.2235210  29.2420303   6.1634434
  44.8734180  29.1793164   5.4814113  44.0931481  33.1159808   4.1064004
  43.9542567  32.7478592   4.9789942  43.3046078  33.6307447   3.9347962
  39.6180940  27.9009041   7.0205423  39.4800738  27.1689279   7.6216962
  40.5285864  27.8117941   6.7389611  42.2463241  27.6129000   6.5089103
  42.9562860  26.9722192   6.4675721  42.2032549  27.8641895   7.4315284
  50.2350020  34.5496353   9.4295682  50.1762566  33.8655573   8.7626265
  50.6369538  35.2915343   8.9776308  40.9592175  24.5994218   8.3284742
  40.4229532  24.1484956   8.9806339  40.3708884  24.7340127   7.5855207
  50.2367427  32.5135937   7.6609662  49.3494206  32.1761859   7.7836060
  50.8065978  31.7818968   7.8978427  31.8896574  28.8460029   0.9852713
  32.5767614  28.5321759   0.3973728  31.7344703  29.7501394   0.7119964
  36.6931296  23.7350225   5.4137737  36.6089485  23.1275895   4.6788147
  35.8714003  24.2259244   5.4147233  43.4489979  24.3621172   0.5079616
  43.0787766  23.8092212   1.1960522  43.9449071  23.7579305  -0.0445384
  41.2779177  34.8218667   7.6034634  41.9788637  35.4555150   7.7564029
  40.8074292  35.1633399   6.8430274  49.0780463  27.3763274   5.4287185
  48.4251914  27.6239182   4.7739637  49.4560843  26.5627413   5.0949662
  45.1268036  28.1183085  11.9153222  44.4508673  28.0177215  12.5855597
  45.9495670  27.9622299  12.3789219  36.8746896  34.3555022   4.5365737
  37.4600332  33.6098710   4.6693641  36.6771734  34.6658979   5.4202401
  31.4664550  26.9260622   3.2570180  31.5048650  26.3924213   4.0507298
  30.9604843  26.3995828   2.6381157  38.8455313  21.7725163   6.7532722
  38.9096639  22.6339994   6.3410120  38.7822433  21.1599164   6.0205081
  38.3207585  23.8448295  10.4005757  38.9479624  23.4625373  11.0143281
  37.4635504  23.6262497  10.7661449  48.7201694  34.2511270  12.0059492
  49.2641598  34.8641229  11.5114447  48.1388539  34.8090849  12.5226505
  35.0973128  25.6524724  -3.6675888  35.3926569  24.7435403  -3.7208835
  34.1961164  25.6312464  -3.9894886  38.6267375  23.7280721   2.3151660
  37.9053961  24.3416689   2.1759133  39.4160631  24.2638486   2.2368306
  41.4293688  21.0635147   8.5892312  41.9528090  21.3097444   9.3518621
  41.2106022  21.8955182   8.1695449  36.8260969  23.3338822  -3.5436563
  36.4973676  22.4536201  -3.7261457  37.1800340  23.2786491  -2.6560174
  42.6346233  22.0048843   6.2741982  42.2943054  21.2056656   6.6762662
  41.9285240  22.3050553   5.7018816  43.2862705  19.0898155   4.7269305
  44.1088775  18.6158633   4.6048196  43.5300769  19.8688639   5.2267992
  40.8101284  25.7817276   2.5361284  40.6645865  26.0957579   3.4285566
  40.3326488  26.4002176   1.9832183  42.6697667  22.7719824   2.5842174
  42.6559236  21.8760917   2.2474472  43.3870095  22.7790487   3.2180460
  44.5223798  23.2057164   4.6295301  44.2641575  24.1274234   4.6279631
  43.9908838  22.8087598   5.3195765  35.2846946  28.3222620   5.4748945
  34.7400414  29.0982428   5.6069220  36.1626296  28.6693424   5.3168067
  36.0712968  27.4492516   8.3679102  35.3294704  27.5975152   8.9543733
  35.7505712  27.7100782   7.5045852  44.0156631  36.9908495   8.1659492
  44.3243757  36.7457641   9.0382192  44.8132113  37.1955133   7.6778362
  34.7178187  33.2544271   1.3578430  33.8810095  32.8266446   1.1762432
  34.6901832  33.4476715   2.2949222  41.5575642  23.1666201  12.0619676
  41.6063798  24.0428324  11.6797446  42.0998157  22.6243594  11.4891320
  52.0430488  33.7107325  11.3420813  51.2526032  33.6931463  10.8025313
  51.8063843  34.2495618  12.0969850  52.1628363  30.5599791   8.6553542
  52.2126368  30.3949798   9.5969065  52.0542286  29.6927050   8.2651423
  49.4532125  26.5430719   9.9712849  50.3541988  26.4037184   9.6796846
  49.5280100  26.7085174  10.9111026  43.7874931  23.9197574   8.8166035
  42.9178240  24.2131140   8.5448624  44.0234411  24.5038019   9.5373299
  53.6646560  32.9796732   8.8995563  53.3731368  33.3426713   9.7359024
  53.0518691  32.2663741   8.7208896  51.9133748  28.1029347   7.3675621
  52.3887870  28.2956993   6.5594473  50.9899314  28.1588533   7.1219005
  46.4913965  20.1377191   6.3331455  47.0095908  20.8738218   6.0077944
  46.1369097  20.4441184   7.1678214  50.6135417  24.9795107   5.6003927
  51.5652840  25.0793205   5.6216151  50.4438868  24.1873376   6.1102011
  48.6349797  22.0650690   5.7863328  48.0399729  22.3455703   5.0909817
  48.3499493  22.5544591   6.5580069  44.8145518  31.1215026  12.2174088
  45.7348528  31.2993625  12.4114134  44.7795101  30.1771071  12.0653787
  34.0327683  26.3153620   1.1427362  33.7130468  25.4618928   0.8501736
  33.4861112  26.5302198   1.8985330  37.8107591  29.0316061   4.8596869
  38.0293601  29.9633168   4.8784903  38.2233365  28.6724035   5.6451673
  42.6835456  24.6049266  14.2499618  42.5832183  25.5543623  14.1811709
  42.4656998  24.2767505  13.3775688  33.9015943  29.9356531   3.1120484
  33.2079415  29.5210484   2.5990438  34.6488934  29.9777068   2.5153903
  42.5466726  28.0346405  13.0664679  42.0633808  28.8346765  13.2728569
  42.6327665  28.0454350  12.1132123  35.8152686  29.8674785   0.9886499
  35.7923374  29.9662472   0.0368382  36.1253322  30.7139936   1.3103665
  39.0639446  30.4952056   7.6703911  39.8832335  30.9896135   7.6938748
  39.3376254  29.5784024   7.6421478  34.3174360  24.8290190   8.3696108
  34.9633224  24.3189144   8.8583333  34.1091511  25.5658871   8.9439533
  46.8427752  31.8971037  13.8688249  47.7118912  32.0711690  13.5074883
  46.3634504  32.7165454  13.7463978  41.0113933  39.0168138   5.5477682
  41.9141179  39.0491749   5.8644177  40.7851303  38.0868589   5.5624018
  38.6571851  21.9757807  12.4671122  39.5203313  21.6194612  12.6774447
  38.0837262  21.6371702  13.1546527  51.2153352  35.3838524  13.4601094
  50.8220297  34.8304722  14.1348738  52.0319492  35.6949102  13.8507611
  54.1321313  36.7996403  11.0521350  54.8731026  37.4003556  10.9725813
  54.3639236  36.0574040  10.4939393  49.1601340  39.1740213  10.4005757
  49.7873378  38.7917290  11.0143281  48.3029258  38.9554415  10.7661449
  52.3969397  38.4958119  12.0619676  52.4457552  39.3720242  11.6797446
  52.9391911  37.9535512  11.4891320  53.5229211  39.9341184  14.2499618
  53.4225938  40.8835541  14.1811709  53.3050753  39.6059423  13.3775688
  45.1568115  40.1582107   8.3696108  45.8026978  39.6481061   8.8583333
  44.9485266  40.8950789   8.9439533  49.4965606  37.3049725  12.4671122
  50.3597067  36.9486529  12.6774447  48.9231016  36.9663619  13.1546527
   4.3024855  44.4333543  27.6741403   3.5488563  43.8640941  27.5185407
   4.4372396  44.3996208  28.6212038   0.6673467  45.8741532  27.9707517
   1.5020359  46.3131336  28.1345078   0.8032596  45.3980185  27.1515763
   4.7131270  44.5909153  30.4061647   5.4434658  44.3294441  30.9669351
   4.1038215  43.8537875  30.4463715   2.7946567  42.7317016  31.0036098
   2.0679731  42.5972981  30.3952590   2.3793854  43.0393844  31.8092816
   2.7195435  42.2595069  27.1312951   2.1594993  42.3288258  27.9044513
   2.1138938  42.0836053  26.4112447   3.8809701  48.1569425  31.8795016
   3.5373970  49.0471067  31.8034126   4.2488663  47.9671083  31.0164601
   5.6797366  47.4162984  26.9812753   5.9856243  46.5560348  26.6938668
   6.4049971  48.0080604  26.7811747   3.3851538  47.2161310  28.4041736
   3.6653292  46.5484499  29.0302162   4.1702145  47.4090406  27.8916399
   7.5453690  49.3937123  27.2709706   7.3478511  49.0852211  28.1553038
   8.1553395  50.1198762  27.4007636   3.2955070  46.3456848  24.9275325
   2.5287465  45.7915335  25.0732007   3.7065775  46.4178717  25.7889476
   4.3024856  21.4395666  14.3986709   3.5488564  20.8703064  14.2430714
   4.4372397  21.4058330  15.3457344   0.6673469  22.8803654  14.6952824
   1.5020360  23.3193458  14.8590384   0.8032597  22.4042307  13.8761070
   4.7131271  21.5971276  17.1306954   5.4434660  21.3356564  17.6914657
   4.1038217  20.8599998  17.1709022   2.7946568  19.7379138  17.7281405
   2.0679732  19.6035103  17.1197897   2.3793855  20.0455967  18.5338123
   2.7195436  19.2657191  13.8558258   2.1594994  19.3350381  14.6289820
   2.1138939  19.0898176  13.1357754   4.3051454  35.9413705  16.5488214
   4.9429864  35.8220453  15.8451554   4.1872297  36.8894549  16.6076166
   1.1141161  35.8941133  16.4849738   0.7759672  35.7782198  15.5970273
   1.9830929  35.4932298  16.4650744   1.5960944  37.0475985  22.4435944
   1.5849584  36.6528783  21.5716447   1.7581583  36.3142058  23.0369715
   3.8592723  33.6665159  13.6241422   4.6455812  33.2484582  13.2731839
   4.1231427  34.5711251  13.7923070   9.2601150  33.6040392  14.5274400
   9.9926322  33.0339609  14.7612230   8.5040506  33.2161993  14.9680906
   0.8777270  36.0267634  11.7237743   0.5135477  35.4998255  12.4350664
   1.7344386  35.6366103  11.5504228   6.7826570  27.3161966  18.9869009
   6.4509895  28.1857377  18.7630224   6.1872184  26.9998250  19.6663039
   3.2758090  39.5174512  18.3864921   2.9758813  40.4199551  18.2780729
   2.9309149  39.2506696  19.2386074   6.6755234  32.0357053  16.0662359
   5.7672111  31.9672461  15.7721120   6.6242829  32.5128998  16.8944184
   8.5416880  30.2373491  17.8440233   7.8991260  30.5306024  17.1980027
   8.0371809  30.1226411  18.6493429   6.1957044  33.9836664   8.5326092
   7.1074900  34.2164051   8.3573789   5.6866691  34.5673708   7.9701171
   4.4797811  38.4061292  22.1687385   4.8881167  37.9643703  21.4242017
   3.7575073  37.8313920  22.4221577   0.8328881  33.3433899  19.5420941
   1.6790077  33.7673312  19.6855590   0.7727519  32.6867523  20.2359505
   4.8026626  38.9662483  15.9239673   4.1735488  39.1308197  15.2215741
   4.4152288  39.3804092  16.6950637   8.6815858  39.9016920  13.2784037
   7.9966896  40.2815822  12.7281070   8.7659707  40.5112247  14.0115985
   3.9828327  31.0038267  21.2002115   3.7389259  31.7580328  20.6636391
   4.2588257  31.3823615  22.0349362   5.9366789  37.5476880  19.8779381
   6.1483685  38.1908639  19.2013762   5.8896538  36.7139196  19.4101311
   3.5393018  30.1594700  16.7815953   2.6777497  30.4575954  17.0732690
   3.5655453  30.3765099  15.8496985   7.0512617  40.4248835  18.0501738
   7.8730061  40.0229022  17.7684420   7.0475020  40.3217069  19.0017854
  15.1418610  36.7687583  14.3986709  14.3882319  36.1994981  14.2430714
  15.2766152  36.7350248  15.3457344   2.1585715  42.2624552  24.2041771
   1.7149569  41.4760931  23.8862675   2.8202928  42.4503703  23.5385662
   4.2566953  42.5427352  22.2323172   4.2385428  43.3636233  21.7403441
   5.1786873  42.4181427  22.4573313   3.8809702  25.1631548  18.6040322
   3.5373971  26.0533189  18.5279433   4.2488665  24.9733205  17.7409907
   1.4307096  29.9989859  12.1697996   0.5748692  29.6096710  11.9903635
   1.8434048  30.0781820  11.3097781   2.9606242  27.5336203  16.5689556
   2.4571038  27.4966338  15.7557361   3.2536849  28.4428945  16.6286212
   8.8194259  37.9072513   9.0465931   8.0423702  37.5683673   8.6021093
   9.4985740  37.9125137   8.3720896   3.6346288  33.0267251   8.9372539
   3.3296424  33.3413400   9.7882682   4.5876730  33.1048671   8.9799872
   7.0585566  37.3806495  15.7032539   6.4009240  38.0705756  15.7912668
   7.8625965  37.7702927  16.0466525   5.8691025  35.7350867  13.7536481
   6.3822906  36.3680859  14.2558190   6.5192249  35.1352063  13.3879841
   2.3471856  33.2100323  15.9994821   1.4294417  33.4315270  15.8416509
   2.7631999  33.2846633  15.1406529   3.1306903  34.6091739  11.1297501
   3.8778722  35.1213136  10.8204623   3.3998493  34.2875791  11.9901895
   6.6352821  40.7156869  11.8815623   6.1815148  39.8747779  11.9380814
   6.0046788  41.3518267  12.2190403   5.5785740  31.6448855  13.1116291
   4.8408497  31.1326241  13.4426533   5.8312514  31.2049236  12.2999568
   5.0785760  42.5533365  12.8165441   5.3708734  43.1138423  12.0977807
   5.5884381  42.8461926  13.5718601   5.6797368  24.4225107  13.7058060
   5.9856245  23.5622470  13.4183975   6.4049973  25.0142727  13.5057054
   3.4885019  33.7997784  20.8039524   3.8434407  34.0269257  21.6633990
   4.1357150  34.1316161  20.1816779   9.2182756  36.9216220  11.5088853
   9.0800655  37.1117816  10.5810042   8.8618975  37.6835603  11.9656904
   9.2452136  38.9892747  16.5200124   9.6788642  38.8968036  17.3683178
   9.9583716  38.9650247  15.8820140   2.9780031  42.5894841  18.0533225
   3.0317053  43.1585777  18.8210941   2.1094812  42.7596726  17.6887262
  10.1067685  39.0316448  19.0533010  10.3003575  39.9362258  19.2992285
  10.0068303  38.5723867  19.8871595   1.7603996  28.9174338  21.5523337
   1.1131911  29.6164288  21.4587813   2.5305011  29.3510482  21.9199585
   5.1682794  39.1823190  24.6273890   5.0168300  38.9533742  23.7103974
   5.1587473  40.1393792  24.6405235   1.9368130  36.7555103  19.6120157
   2.8660190  36.9066263  19.4389124   1.5159160  36.8439124  18.7568803
   2.2861677  40.1587370  14.7707532   1.9511510  40.1188140  15.6665182
   1.7865623  39.4932086  14.2977942   6.8775001  42.2142313  22.7050372
   6.8187547  41.5301533  22.0380955   7.2794519  42.9561303  22.2530998
   6.8792408  40.1781897  20.9364352   5.9919187  39.8407819  21.0590751
   7.4490959  39.4464928  21.1733117   3.5079991  29.8849749  14.0562622
   4.0048690  29.1319711  13.7363692   2.7366972  29.9214065  13.4905831
  11.3609748  35.5890114  15.6980914  11.3499625  36.4714830  15.3274847
  10.4927128  35.2361665  15.5035451   2.8692245  44.7370183  20.0583754
   3.5820217  45.3717648  19.9859655   2.3782273  44.8334049  19.2423756
   4.5909772  38.6421436  11.6301045   3.6566050  38.7622898  11.4605750
   4.7686440  37.7393903  11.3661055   7.9782323  34.4838755  12.1651080
   8.4442775  35.3166747  12.0911382   8.4289823  34.0183737  12.8696338
   6.0458554  40.8282576   9.1637232   6.3218398  40.7139171  10.0731106
   5.1763053  40.4300061   9.1249405   5.9498986  26.8519342  16.2041981
   5.0362066  27.0823569  16.3724188   6.3792087  26.9357786  17.0556013
   5.7205444  35.0409234  18.7041875   5.0676894  35.2885142  18.0494328
   6.0985824  34.2273372  18.3704352   1.7693017  35.7829045  25.1907912
   1.0933654  35.6823175  25.8610287   2.5920651  35.6268259  25.6543909
   0.5115800  47.0895973  19.4265528   1.0634108  47.2527594  20.1914613
   0.8521994  47.6800410  18.7545553   5.3626674  41.9157230  25.2814182
   5.9066578  42.5287188  24.7869137   4.7813519  42.4736809  25.7981195
   3.6484187  45.0377948  16.4129210   3.5235327  44.2367688  15.9040156
   4.3063279  45.5324142  15.9243180   5.7119096  42.8386968  18.0408760
   4.7649431  42.7192319  17.9687087   6.0601869  41.9509466  18.1235022
   2.7165529  42.6339684  14.2413112   2.5690492  41.7056392  14.4220683
   3.5419023  42.6559775  13.7570188   6.3199651  43.4568243  15.3277985
   7.2446198  43.2511105  15.1902436   6.1514954  43.2084644  16.2367327
   2.7127043  30.4877522   9.2345230   2.9290658  31.3702160   8.9334058
   2.2321111  30.0963736   8.5050872   1.1648778  30.8703124  17.9049991
   0.9066556  31.7920194  17.9034322   0.6333819  30.4733558  18.5950455
   6.1094967  43.9753911  10.6840077   6.2831845  43.4100333   9.9313929
   6.6023858  44.7754806  10.5019567   1.5850734  27.0035074  14.2651154
   1.6072431  27.0674407  13.3103133   2.0018793  26.1639583  14.4591660
  11.9634358  36.7390334  12.3030376  12.4065504  35.9897659  11.9049500
  11.0860869  36.7300470  11.9204108   8.9961563  40.7420381   9.3124306
   9.5212887  41.0807653   8.5873626   8.9083915  39.8067396   9.1287440
   0.6581611  44.6554454  21.4414182   0.9668738  44.4103601  22.3136882
   1.4557093  44.8601093  20.9533053   8.6855469  41.3753284  24.6175504
   7.8951013  41.3577423  24.0780003   8.4488823  41.9141578  25.3724540
   8.8053344  38.2245751  21.9308232   8.8551349  38.0595758  22.8723755
   8.6967267  37.3573010  21.5406113   6.0957106  34.2076679  23.2467539
   6.9966969  34.0683143  22.9551537   6.1705081  34.3731133  24.1865716
  10.3071541  40.6442692  22.1750254  10.0156349  41.0072673  23.0113715
   9.6943672  39.9309700  21.9963586  11.5067223  38.2095572  14.6952824
  12.3414114  38.6485376  14.8590384  11.6426352  37.7334225  13.8761070
   8.5558729  35.7675307  20.6430312   9.0312851  35.9602953  19.8349163
   7.6324294  35.8234493  20.3973695   3.1338945  27.8023150  19.6086146
   3.6520889  28.5384177  19.2832634   2.7794078  28.1087144  20.4432905
   3.3851540  24.2223433  15.1287042   3.6653293  23.5546622  15.7547469
   4.1702147  24.4152528  14.6161706   7.2560398  32.6441067  18.8758617
   8.2077821  32.7439165  18.8970841   7.0863848  31.8519335  19.3856702
   5.2774777  29.7296650  19.0618018   4.6824710  30.0101663  18.3664507
   4.9924474  30.2190551  19.8334759   9.7348476  35.8647187  17.9900917
   9.7024796  34.9263187  18.1760601  10.3449099  35.9431223  17.2566742
   9.8842964  32.6558230  18.0359200   9.3682013  31.8716687  17.8489129
  10.7682913  32.3276947  18.2005720   7.5453691  26.3999246  13.9955013
   7.3478512  26.0914334  14.8798345   8.1553397  27.1260884  14.1252943
  15.5525026  36.9263193  17.1306954  16.2828414  36.6648482  17.6914657
  14.9431971  36.1891915  17.1709022  13.6340323  35.0671056  17.7281405
  12.9073486  34.9327021  17.1197897  13.2187610  35.3747885  18.5338123
   1.4570499  38.7860986  25.4928778   2.3773509  38.9639585  25.6868825
   1.4220082  37.8417031  25.3408477   1.3736789  27.2030106  10.1227248
   0.5637518  26.8577191  10.4982494   2.0621206  26.8937649  10.7114859
   3.3027338  26.2808152  11.7451544   3.8558376  26.7003606  12.4041567
   3.5397424  25.3543901  11.7874500   6.6806145  28.3908678  11.2530208
   6.1004814  29.0493482  10.8708261   6.4142078  27.5686022  10.8417626
   5.1309711  27.7913735  13.4551529   5.6309490  27.9030270  12.6465848
   5.7745319  27.4874788  14.0952337   5.4631023  30.5508768  10.3086557
   4.5756878  30.8358419  10.0906752   5.8785012  30.3902531   9.4613834
   8.8145559  30.5755289  14.0240896   9.5905949  31.0651741  14.2965513
   8.0893693  31.0013343  14.4812765  11.2518118  31.2882908  15.0814837
  11.8462608  31.0478644  14.3708145  11.3244701  30.5690039  15.7088373
   5.4372047  36.0663304  10.5236847   5.3807248  36.5231855   9.6844479
   5.9900389  35.3053988  10.3459690   9.2476853  31.8553036  11.3486966
   8.9913787  31.4549671  12.1795174   8.6229721  32.5696830  11.2237106
  13.5589190  34.5949109  13.8558258  12.9988748  34.6642298  14.6289820
  12.9532694  34.4190094  13.1357754   6.1706826  37.2568085   7.8189376
   6.1155630  37.0912357   6.8777820   5.5452881  37.9644118   7.9751566
   3.4852733  39.5616997  27.1442939   4.3543893  39.7357649  26.7829574
   3.0059485  40.3811414  27.0218668   3.2955071  23.3518971  11.6520631
   2.5287467  22.7977457  11.7977314   3.7065776  23.4240840  12.5134783
  15.1445209  51.2705623  16.5488214  15.7823619  51.1512370  15.8451554
  15.0266052  52.2186467  16.6076166  11.9534915  51.2233051  16.4849738
  11.6153427  51.1074116  15.5970273  12.8224683  50.8224216  16.4650744
  12.4354698  52.3767903  22.4435944  12.4243339  51.9820701  21.5716447
  12.5975338  51.6433975  23.0369715  14.6986477  48.9957077  13.6241422
  15.4849567  48.5776500  13.2731839  14.9625182  49.9003169  13.7923070
  20.0994904  48.9332310  14.5274400  20.8320076  48.3631527  14.7612230
  19.3434260  48.5453910  14.9680906  11.7171024  51.3559551  11.7237743
  11.3529231  50.8290172  12.4350664  12.5738140  50.9658021  11.5504228
  17.6220325  42.6453884  18.9869009  17.2903650  43.5149295  18.7630224
  17.0265938  42.3290168  19.6663039  17.5148988  47.3648970  16.0662359
  16.6065865  47.2964379  15.7721120  17.4636584  47.8420915  16.8944184
  11.5889854  48.7838616  24.0097256  10.8123188  49.3432536  24.0000121
  12.2280417  49.2695399  24.5312126  19.3810635  45.5665409  17.8440233
  18.7385015  45.8597942  17.1980027  18.8765563  45.4518329  18.6493429
  17.0350798  49.3128582   8.5326092  17.9468654  49.5455969   8.3573789
  16.5260445  49.8965626   7.9701171  11.6722636  48.6725816  19.5420941
  12.5183831  49.0965230  19.6855590  11.6121274  48.0159441  20.2359505
  14.8222081  46.3330185  21.2002115  14.5783013  47.0872245  20.6636391
  15.0982012  46.7115532  22.0349362  16.7760544  52.8768797  19.8779381
  16.9877439  53.5200557  19.2013762  16.7290292  52.0431114  19.4101311
  14.3786773  45.4886618  16.7815953  13.5171252  45.7867871  17.0732690
  14.4049208  45.7057017  15.8496985   8.5797590  48.7463717  24.3730533
   7.9496251  49.4279998  24.6065930   8.4733678  48.6346799  23.4283671
  25.9812365  52.0979501  14.3986709  25.2276073  51.5286899  14.2430714
  26.1159906  52.0642166  15.3457344   7.8578333  43.0484483  26.7355784
   7.4645278  42.4950682  27.4103428   8.6744473  43.3595062  27.1262302
  10.7746294  44.4642362  24.3276041  11.5156007  45.0649515  24.2480503
  11.0064216  43.7220000  23.7694083  14.7203457  40.4923465  18.6040322
  14.3767726  41.3825107  18.5279433  15.0882419  40.3025123  17.7409907
  12.2700850  45.3281777  12.1697996  11.4142447  44.9388628  11.9903635
  12.6827802  45.4073738  11.3097781  13.7999997  42.8628120  16.5689556
  13.2964793  42.8258256  15.7557361  14.0930604  43.7720863  16.6286212
  10.0442883  42.9466850  15.5755737  10.9095880  42.7509659  15.2161627
  10.1120392  42.7177202  16.5025094  19.6588013  53.2364431   9.0465931
  18.8817456  52.8975591   8.6021093  20.3379494  53.2417054   8.3720896
  14.4740042  48.3559168   8.9372539  14.1690178  48.6705318   9.7882682
  15.4270485  48.4340588   8.9799872  17.8979320  52.7098412  15.7032539
  17.2402995  53.3997674  15.7912668  18.7019720  53.0994844  16.0466525
   7.6505202  45.1769058  12.9472104   8.2248954  44.9544240  12.2145297
   8.2376184  45.2457753  13.7000705  16.7084779  51.0642785  13.7536481
  17.2216661  51.6972777  14.2558190  17.3586003  50.4643980  13.3879841
   9.9527870  42.0510307  11.6747174   9.2992282  41.7359324  11.0503788
   9.9108344  41.4286047  12.4006996  13.1865610  48.5392241  15.9994821
  12.2688171  48.7607188  15.8416509  13.6025754  48.6138551  15.1406529
  13.9700658  49.9383656  11.1297501  14.7172477  50.4505053  10.8204623
  14.2392247  49.6167709  11.9901895  16.4179495  46.9740772  13.1116291
  15.6802252  46.4618159  13.4426533  16.6706268  46.5341154  12.2999568
  16.5191122  39.7517024  13.7058060  16.8249999  38.8914388  13.4183975
  17.2443727  40.3434645  13.5057054  10.7912202  50.0470818  14.2134251
  10.8460812  49.0944654  14.1376728   9.9803404  50.2030257  14.6975549
   8.7304562  48.6647877  11.9724630   7.9172427  48.9642048  12.3789822
   9.2263556  48.2703566  12.6899112  14.3278774  49.1289702  20.8039524
  14.6828161  49.3561175  21.6633990  14.9750905  49.4608079  20.1816779
  20.0576511  52.2508138  11.5088853  19.9194409  52.4409734  10.5810042
  19.7012729  53.0127520  11.9656904   8.2218637  46.2366233  17.5885865
   8.8618016  46.0954992  16.8908828   7.3896167  45.9500746  17.2124467
  20.0845890  54.3184665  16.5200124  20.5182397  54.2259954  17.3683178
  20.7977471  54.2942165  15.8820140   6.6972178  47.6204315  19.5357676
   7.3695232  47.4121677  18.8870325   5.8701965  47.4226401  19.0962909
  20.9461440  54.3608365  19.0533010  21.1397330  55.2654176  19.2992285
  20.8462058  53.9015784  19.8871595  12.5997750  44.2466256  21.5523337
  11.9525665  44.9456206  21.4587813  13.3698766  44.6802400  21.9199585
  12.7761885  52.0847021  19.6120157  13.7053945  52.2358180  19.4389124
  12.3552915  52.1731042  18.7568803   9.7281976  50.6066877  19.7843793
  10.4381595  49.9660069  19.7430411   9.6851285  50.8579772  20.7069974
   8.4410910  47.5932095  21.6039433   7.9048267  47.1422834  22.2561029
   7.8527619  47.7278004  20.8609897   4.1750032  46.7288103  18.6892427
   4.0908220  46.1213772  17.9542837   3.3532738  47.2197121  18.6901923
  14.3473745  45.2141666  14.0562622  14.8442445  44.4611629  13.7363692
  13.5760727  45.2505983  13.4905831  22.2003503  50.9182032  15.6980914
  22.1893379  51.8006747  15.3274847  21.3320882  50.5653583  15.5035451
  10.9308714  47.3559049  13.7834307  10.5606502  46.8030090  14.4715212
  11.4267807  46.7517183  13.2309307  18.8176077  49.8130673  12.1651080
  19.2836530  50.6458664  12.0911382  19.2683578  49.3475654  12.8696338
  16.7892740  42.1811260  16.2041981  15.8755820  42.4115487  16.3724188
  17.2185842  42.2649704  17.0556013  16.5599199  50.3701152  18.7041875
  15.9070649  50.6177059  18.0494328  16.9379579  49.5565290  18.3704352
  12.6086772  51.1120963  25.1907912  11.9327409  51.0115092  25.8610287
  13.4314406  50.9560177  25.6543909   6.3274048  44.7663040  20.0287413
   6.3915374  45.6277871  19.6164810   6.2641168  44.1537042  19.2959771
   5.8026320  46.8386173  23.6760447   6.4298359  46.4563250  24.2897971
   4.9454239  46.6200375  24.0416139   6.1086110  46.7218598  15.5906350
   5.3872696  47.3354566  15.4513824   6.8979366  47.2576363  15.5122996
   8.9112424  44.0573025  21.8647002   9.4346825  44.3035321  22.6273311
   8.6924757  44.8893060  21.4450140  10.1164969  44.9986720  19.5496673
   9.7761789  44.1994533  19.9517353   9.4103975  45.2988431  18.9773506
  10.7681441  42.0836032  18.0023996  11.5907510  41.6096511  17.8802886
  11.0119504  42.8626516  18.5022682  13.5520798  45.8169440   9.2345230
  13.7684412  46.6994078   8.9334058  13.0714865  45.4255653   8.5050872
   8.2920019  48.7755153  15.8115974   8.1464600  49.0895456  16.7040256
   7.8145223  49.3940053  15.2586873  10.1516402  45.7657701  15.8596864
  10.1377971  44.8698794  15.5229162  10.8688830  45.7728365  16.4935150
  12.0042533  46.1995041  17.9049991  11.7460311  47.1212112  17.9034322
  11.4727573  45.8025476  18.5950455   9.5553298  44.6472081  11.1284434
   9.6769209  43.7188727  11.3275322   9.2655340  44.6610767  10.2162749
  12.4244488  42.3326992  14.2651154  12.4466185  42.3966325  13.3103133
  12.8412547  41.4931500  14.4591660  22.8028113  52.0682251  12.3030376
  23.2459259  51.3189576  11.9049500  21.9254623  52.0592388  11.9204108
   9.0394378  46.1604079  25.3374367   9.0882533  47.0366201  24.9552136
   9.5816892  45.6181472  24.7646010  19.6447098  53.5537668  21.9308232
  19.6945103  53.3887676  22.8723755  19.5361022  52.6864927  21.5406113
  16.9350861  49.5368596  23.2467539  17.8360723  49.3975061  22.9551537
  17.0098835  49.7023051  24.1865716  11.2693666  46.9135451  22.0920725
  10.3996975  47.2069017  21.8203314  11.5053146  47.4975896  22.8127989
  22.3460977  53.5387490  14.6952824  23.1807869  53.9777294  14.8590384
  22.4820106  53.0626143  13.8761070  19.3952483  51.0967224  20.6430312
  19.8706605  51.2894871  19.8349163  18.4718049  51.1526410  20.3973695
  13.9732700  43.1315068  19.6086146  14.4914644  43.8676095  19.2832634
  13.6187833  43.4379061  20.4432905  14.2245294  39.5515351  15.1287042
  14.5047048  38.8838540  15.7547469  15.0095901  39.7444446  14.6161706
  18.0954152  47.9732985  18.8758617  19.0471575  48.0731082  18.8970841
  17.9257603  47.1811253  19.3856702  16.1168532  45.0588568  19.0618018
  15.5218464  45.3393580  18.3664507  15.8318229  45.5482469  19.8334759
  20.5742230  51.1939104  17.9900917  20.5418550  50.2555105  18.1760601
  21.1842854  51.2723141  17.2566742  20.7236719  47.9850148  18.0359200
  20.2075767  47.2008604  17.8489129  21.6076667  47.6568864  18.2005720
  18.3847446  41.7291163  13.9955013  18.1872267  41.4206251  14.8798345
  18.9947151  42.4552802  14.1252943  26.3918780  52.2555111  17.1306954
  27.1222169  51.9940399  17.6914657  25.7825726  51.5183833  17.1709022
  24.4734077  50.3962974  17.7281405  23.7467241  50.2618939  17.1197897
  24.0581364  50.7039802  18.5338123  12.2130544  42.5322023  10.1227248
  11.4031272  42.1869108  10.4982494  12.9014961  42.2229567  10.7114859
  14.1421092  41.6100070  11.7451544  14.6952131  42.0295524  12.4041567
  14.3791179  40.6835818  11.7874500  10.1654191  47.5987144  27.5254308
  10.0650918  48.5481501  27.4566399   9.9475734  47.2705383  26.6530378
  17.5199899  43.7200595  11.2530208  16.9398568  44.3785399  10.8708261
  17.2535832  42.8977940  10.8417626  15.9703466  43.1205653  13.4551529
  16.4703244  43.2322187  12.6465848  16.6139074  42.8166706  14.0952337
  16.3024777  45.8800686  10.3086557  15.4150632  46.1650336  10.0906752
  16.7178766  45.7194449   9.4613834  19.6539313  45.9047207  14.0240896
  20.4299704  46.3943659  14.2965513  18.9287448  46.3305261  14.4812765
  22.0911872  46.6174826  15.0814837  22.6856363  46.3770562  14.3708145
  22.1638456  45.8981956  15.7088373  16.2765801  51.3955222  10.5236847
  16.2201002  51.8523773   9.6844479  16.8294144  50.6345906  10.3459690
  20.0870607  47.1844953  11.3486966  19.8307541  46.7841589  12.1795174
  19.4623475  47.8988747  11.2237106  24.3982945  49.9241027  13.8558258
  23.8382503  49.9934216  14.6289820  23.7926448  49.7482011  13.1357754
  17.0100580  52.5860003   7.8189376  16.9549384  52.4204274   6.8777820
  16.3846636  53.2936036   7.9751566   1.7993095  47.8228067  21.6450798
   2.4451959  47.3127021  22.1338023   1.5910246  48.5596749  22.2194224
  10.3196706  42.0868112   7.3974694  10.3075376  43.0309952   7.5542965
  11.2120128  41.9038257   7.1034156  14.1348825  38.6810888  11.6520631
  13.3681221  38.1269375  11.7977314  14.5459530  38.7532757  12.5134783
   6.1390586  44.9695684  25.7425813   7.0022048  44.6132489  25.9529137
   5.5655997  44.6309579  26.4301217  25.5597211  55.8215383  18.6040322
  25.2161480  56.7117025  18.5279433  25.9276174  55.6317041  17.7409907
  27.3584877  55.0808942  13.7058060  27.6643754  54.2206306  13.4183975
  28.0837482  55.6726562  13.5057054  25.0639049  54.8807268  15.1287042
  25.3440802  54.2130457  15.7547469  25.8489655  55.0736364  14.6161706
  29.2241200  57.0583081  13.9955013  29.0266021  56.7498169  14.8798345
  29.8340906  57.7844720  14.1252943  24.9742580  54.0102806  11.6520631
  24.2074976  53.4561293  11.7977314  25.3853285  54.0824675  12.5134783
   6.8775002  19.2204436   9.4295679   6.8187548  18.5363656   8.7626262
   7.2794520  19.9623426   8.9776305   5.3626676  18.9219353  12.0059489
   5.9066580  19.5349311  11.5114444   4.7813521  19.4798931  12.5226502
   8.6855470  18.3815407  11.3420810   7.8951014  18.3639546  10.8025310
   8.4488825  18.9203701  12.0969847  10.3071542  17.6504815   8.8995560
  10.0156350  18.0134795   9.7359021   9.6943673  16.9371823   8.7208892
   3.4852734  16.5679120  13.8688245   4.3543894  16.7419772  13.5074880
   3.0059486  17.3873536  13.7463975  15.1445210  28.2767746   3.2733520
  15.7823620  28.1574493   2.5696860  15.0266053  29.2248589   3.3321472
  11.9534916  28.2295174   3.2095045  11.6153428  28.1136238   2.3215580
  12.8224685  27.8286339   3.1896051  12.4354699  29.3830025   9.1681250
  12.4243340  28.9882824   8.2961754  12.5975339  28.6496098   9.7615022
   9.1561960  32.1667137   8.1160434   8.8651826  33.0712768   8.0007101
   9.7918945  32.2083665   8.8304504  10.0818167  29.5443986   4.7061794
  10.6781740  29.3200008   3.9918757  10.1393139  28.8028731   5.3087242
  20.0994906  25.9394433   1.2519707  20.8320078  25.3693649   1.4857536
  19.3434261  25.5516033   1.6926212  17.6220326  19.6516007   5.7114315
  17.2903651  20.5211418   5.4875530  17.0265939  19.3352291   6.3908346
  14.1151846  31.8528553   5.1110228  13.8152569  32.7553591   5.0026035
  13.7702905  31.5860736   5.9631381  17.5148989  24.3711093   2.7907665
  16.6065867  24.3026501   2.4966426  17.4636585  24.8483038   3.6189491
  11.5889855  25.7900738  10.7342563  10.8123189  26.3494659  10.7245427
  12.2280418  26.2757521  11.2557433  19.3810636  22.5727531   4.5685539
  18.7385016  22.8660064   3.9225334  18.8765564  22.4580452   5.3738736
   9.8436227  28.5986192  10.2960530  10.5850912  29.1371236  10.0195353
   9.1373213  29.2252481  10.4532081  15.3191567  30.7415332   8.8932691
  15.7274923  30.2997743   8.1487324  14.5968829  30.1667960   9.1466884
  11.6722637  25.6787939   6.2666248  12.5183832  26.1027353   6.4100897
  11.6121275  25.0221563   6.9604811  15.6420382  31.3016523   2.6484980
  15.0129244  31.4662237   1.9461048  15.2546044  31.7158132   3.4195944
  19.5209614  32.2370961   0.0029344  18.8360652  32.6169862  -0.5473623
  19.6053463  32.8466287   0.7361292  14.8222082  23.3392307   7.9247422
  14.5783014  24.0934368   7.3881697  15.0982013  23.7177655   8.7594669
  16.7760545  29.8830920   6.6024687  16.9877440  30.5262680   5.9259068
  16.7290293  29.0493236   6.1346617   8.0872425  30.5862413   2.8514828
   8.6573782  31.0149681   2.2132313   8.6780537  30.3044997   3.5499014
   8.5797591  25.7525840  11.0975840   7.9496252  26.4342121  11.3311236
   8.4733679  25.6408922  10.1528978  17.8906373  32.7602875   4.7747045
  18.7123817  32.3583062   4.4929726  17.8868776  32.6571109   5.7263160
  11.6562977  32.3086918   6.9307755  11.7207409  32.7707326   7.7665927
  10.9473901  31.6784283   7.0590065  25.9812366  29.1041624   1.1232016
  25.2276075  28.5349022   0.9676021  26.1159907  29.0704288   2.0702651
   7.8578334  20.0546606  13.4601091   7.4645279  19.5012804  14.1348735
   8.6744474  20.3657184  13.8507608  10.7746295  21.4704485  11.0521347
  11.5156008  22.0711638  10.9725810  11.0064218  20.7282123  10.4939390
   5.9187633  26.6560852   9.3299577   5.8041148  25.7546109   9.6306676
   5.0632151  26.9024549   8.9784393  12.9979471  34.5978592  10.9287078
  12.5543325  33.8114971  10.6107982  13.6596684  34.7857743  10.2630968
   7.7566592  36.1274394   5.4547756   8.3074017  35.9991457   4.6824750
   6.9178068  36.4269283   5.1042649  15.0960709  34.8781392   8.9568479
  15.0779184  35.6990273   8.4648748  16.0180629  34.7535468   9.1818620
  11.5533763  32.3925522   9.7991987  12.0862100  31.6313810   9.5691295
  11.0247844  32.0999174  10.5416142  17.8979322  29.7160535   2.4277846
  17.2402996  30.4059796   2.5157974  18.7019721  30.1056967   2.7711832
  16.7084780  28.0704908   0.4781787  17.2216662  28.7034899   0.9803497
  17.3586004  27.4706103   0.1125147  13.1865611  25.5454363   2.7240128
  12.2688173  25.7669310   2.5661816  13.6025755  25.6200674   1.8651835
  17.4746577  33.0510909  -1.3939070  17.0208904  32.2101819  -1.3373880
  16.8440543  33.6872307  -1.0564290  15.9179516  34.8887406  -0.4589252
  16.2102490  35.4492463  -1.1776886  16.4278136  35.1815967   0.2963907
  14.3278775  26.1351824   7.5284830  14.6828163  26.3623297   8.3879296
  14.9750906  26.4670201   6.9062086  20.0576512  29.2570260  -1.7665841
  19.9194410  29.4471856  -2.6944651  19.7012731  30.0189643  -1.3097789
  20.0845891  31.3246787   3.2445431  20.5182398  31.2322076   4.0928485
  20.7977472  31.3004288   2.6065447  13.8173786  34.9248881   4.7778532
  13.8710809  35.4939818   5.5456247  12.9488568  35.0950766   4.4132569
   6.6972180  24.6266438   6.2602983   7.3695233  24.4183800   5.6115632
   5.8701966  24.4288524   5.8208215  20.9461441  31.3670488   5.7778316
  21.1397331  32.2716298   6.0237591  20.8462059  30.9077907   6.6116901
  12.5997752  21.2528378   8.2768644  11.9525667  21.9518328   8.1833120
  13.3698767  21.6864522   8.6444892  16.0076550  31.5177231  11.3519197
  15.8562056  31.2887782  10.4349281  15.9981229  32.4747832  11.3650542
  12.7761886  29.0909143   6.3365463  13.7053946  29.2420303   6.1634431
  12.3552916  29.1793164   5.4814110  11.5750218  33.1159808   4.1064001
  11.4361304  32.7478592   4.9789939  10.7864814  33.6307447   3.9347959
  13.1255433  32.4941410   1.4952839  12.7905266  32.4542180   2.3910489
  12.6259379  31.8286126   1.0223249   7.0999677  27.9009041   7.0205420
   6.9619475  27.1689279   7.6216959   8.0104600  27.8117941   6.7389608
   9.7281978  27.6129000   6.5089100  10.4381596  26.9722192   6.4675718
   9.6851286  27.8641895   7.4315280  17.7168756  34.5496353   9.4295679
  17.6581302  33.8655573   8.7626262  18.1188275  35.2915343   8.9776305
   8.4410912  24.5994218   8.3284739   7.9048269  24.1484956   8.9806335
   7.8527620  24.7340127   7.5855203  17.7186164  32.5135937   7.6609659
  16.8312942  32.1761859   7.7836057  18.2884715  31.7818968   7.8978424
  11.2487317  37.1737389   4.6270902  11.1757488  37.9792361   5.1390206
  10.8064710  37.3729355   3.8018923  22.2003504  27.9244154   2.4226220
  22.1893380  28.8068870   2.0520153  21.3320884  27.5715705   2.2280757
  13.7086000  37.0724223   6.7829060  14.4213973  37.7071688   6.7104962
  13.2176029  37.1688089   5.9669062   8.7597914  34.8218667   7.6034631
   9.4607373  35.4555150   7.7564025   8.2893029  35.1633399   6.8430270
  16.5599200  27.3763274   5.4287182  15.9070650  27.6239182   4.7739634
  16.9379580  26.5627413   5.0949659  12.6086773  28.1183085  11.9153219
  11.9327410  28.0177215  12.5855594  13.4314407  27.9622299  12.3789216
  11.3509556  39.4250013   6.1510835  11.9027864  39.5881634   6.9159920
  11.6915749  40.0154451   5.4790860   5.8026322  23.8448295  10.4005754
   6.4298360  23.4625373  11.0143278   4.9454240  23.6262497  10.7661446
  16.2020430  34.2511270  12.0059489  16.7460334  34.8641229  11.5114444
  15.6207275  34.8090849  12.5226502  14.4877943  37.3731988   3.1374517
  14.3629083  36.5721728   2.6285462  15.1457034  37.8678182   2.6488487
  16.5512852  35.1741009   4.7654067  15.6043187  35.0546360   4.6932394
  16.8995625  34.2863507   4.8480328   8.9112425  21.0635147   8.5892309
   9.4346827  21.3097444   9.3518618   8.6924758  21.8955182   8.1695446
  13.5559285  34.9693725   0.9658419  13.4084247  34.0410432   1.1465989
  14.3812778  34.9913815   0.4815494  17.1593407  35.7922283   2.0523292
  18.0839954  35.5865145   1.9147743  16.9908710  35.5438685   2.9612633
  10.1164970  22.0048843   6.2741979   9.7761790  21.2056656   6.6762659
   9.4103976  22.3050553   5.7018813  12.0042534  23.2057164   4.6295298
  11.7460312  24.1274234   4.6279628  11.4727575  22.8087598   5.3195762
  16.9488723  36.3107951  -2.5914617  17.1225600  35.7454373  -3.3440764
  17.4417614  37.1108846  -2.7735127   2.7665683  28.3222620   5.4748942
   2.2219151  29.0982428   5.6069216   3.6445033  28.6693424   5.3168064
  22.8028114  29.0744374  -0.9724317  23.2459260  28.3251699  -1.3705194
  21.9254624  29.0654510  -1.3550585   3.5531705  27.4492516   8.3679099
   2.8113441  27.5975152   8.9543729   3.2324449  27.7100782   7.5045848
  19.8355318  33.0774421  -3.9630388  20.3606643  33.4161694  -4.6881068
  19.7477671  32.1421436  -4.1467253  11.4975367  36.9908495   8.1659489
  11.8062494  36.7457641   9.0382189  12.2950849  37.1955133   7.6778359
   9.0394379  23.1666201  12.0619673   9.0882534  24.0428324  11.6797443
   9.5816893  22.6243594  11.4891316  19.5249225  33.7107325  11.3420810
  18.7344768  33.6931463  10.8025310  19.2882579  34.2495618  12.0969847
  19.6447100  30.5599791   8.6553539  19.6945105  30.3949798   9.5969062
  19.5361023  29.6927050   8.2651420  16.9350862  26.5430719   9.9712846
  17.8360725  26.4037184   9.6796843  17.0098837  26.7085174  10.9111023
  11.2693667  23.9197574   8.8166032  10.3996977  24.2131140   8.5448620
  11.5053148  24.5038019   9.5373296  21.1465296  32.9796732   8.8995560
  20.8550105  33.3426713   9.7359021  20.5337428  32.2663741   8.7208892
  22.3460979  30.5449612   1.4198131  23.1807870  30.9839416   1.5835691
  22.4820108  30.0688265   0.6006376  19.3952485  28.1029347   7.3675618
  19.8706606  28.2956993   6.5594470  18.4718050  28.1588533   7.1219002
  13.9732701  20.1377191   6.3331452  14.4914645  20.8738218   6.0077941
  13.6187834  20.4441184   7.1678211  18.0954154  24.9795107   5.6003924
  19.0471577  25.0793205   5.6216148  17.9257604  24.1873376   6.1102008
  16.1168533  22.0650690   5.7863325  15.5218465  22.3455703   5.0909814
  15.8318230  22.5544591   6.5580066  20.5742231  28.2001227   4.7146224
  20.5418552  27.2617228   4.9005907  21.1842855  28.2785264   3.9812049
  20.7236720  24.9912270   4.7604507  20.2075769  24.2070727   4.5734436
  21.6076668  24.6630987   4.9251026  26.3918781  29.2617234   3.8552260
  27.1222170  29.0002522   4.4159964  25.7825727  28.5245956   3.8954328
  24.4734078  27.4025096   4.4526712  23.7467242  27.2681061   3.8443203
  24.0581365  27.7101925   5.2583430  12.2964255  31.1215026  12.2174085
  13.2167264  31.2993625  12.4114131  12.2613838  30.1771071  12.0653784
   5.2926327  29.0316061   4.8596866   5.5112337  29.9633168   4.8784900
   5.7052101  28.6724035   5.6451670  10.1654193  24.6049266  14.2499615
  10.0650920  25.5543623  14.1811706   9.9475735  24.2767505  13.3775685
  10.0285463  28.0346405  13.0664676   9.5452544  28.8346765  13.2728565
  10.1146402  28.0454350  12.1132120   5.9558800  31.9250940   5.1033110
   6.9102054  31.8934882   5.0363042   5.7571324  31.4641564   5.9183336
   6.5458182  30.4952056   7.6703908   7.3651071  30.9896135   7.6938745
   6.8194990  29.5784024   7.6421475  22.0911873  23.6236948   1.8060143
  22.6856364  23.3832684   1.0953451  22.1638457  22.9044079   2.4333680
  24.3982946  26.9303149   0.5803564  23.8382504  26.9996339   1.3535126
  23.7926449  26.7544134  -0.1396939   1.7993097  24.8290190   8.3696105
   2.4451960  24.3189144   8.8583330   1.5910248  25.5658871   8.9439530
  14.3246489  31.8971037  13.8688245  15.1937648  32.0711690  13.5074880
  13.8453240  32.7165454  13.7463975   8.4932669  39.0168138   5.5477679
   9.3959916  39.0491749   5.8644174   8.2670039  38.0868589   5.5624015
   6.1390588  21.9757807  12.4671119   7.0022049  21.6194612  12.6774444
   5.5655998  21.6371702  13.1546523  25.9838965  43.6059663   3.2733520
  26.6217375  43.4866411   2.5696860  25.8659807  44.5540507   3.3321472
  22.7928671  43.5587091   3.2095045  22.4547182  43.4428156   2.3215580
  23.6618439  43.1578256   3.1896051  23.2748454  44.7121943   9.1681250
  23.2637095  44.3174741   8.2961754  23.4369093  43.9788016   9.7615022
  19.9955715  47.4959055   8.1160434  19.7045581  48.4004686   8.0007101
  20.6312699  47.5375582   8.8304504  20.9211922  44.8735903   4.7061794
  21.5175494  44.6491926   3.9918757  20.9786893  44.1320649   5.3087242
  28.4614081  34.9807924   5.7114315  28.1297405  35.8503335   5.4875530
  27.8659694  34.6644208   6.3908346  24.9545600  47.1820470   5.1110228
  24.6546323  48.0845509   5.0026035  24.6096660  46.9152654   5.9631381
  18.4058082  43.6334267   1.1446932  17.4808578  43.5010481   1.3524624
  18.6542495  44.4128486   1.6416875  28.3542744  39.7003011   2.7907665
  27.4459621  39.6318419   2.4966426  28.3030340  40.1774955   3.6189491
  22.4283610  41.1192656  10.7342563  21.6516944  41.6786576  10.7245427
  23.0674173  41.6049439  11.2557433  30.2204390  37.9019449   4.5685539
  29.5778770  38.1951982   3.9225334  29.7159319  37.7872369   5.3738736
  20.6829982  43.9278109  10.2960530  21.4244666  44.4663153  10.0195353
  19.9766967  44.5544398  10.4532081  26.1585322  46.0707250   8.8932691
  26.5668678  45.6289660   8.1487324  25.4362583  45.4959877   9.1466884
  22.5116392  41.0079857   6.2666248  23.3577587  41.4319270   6.4100897
  22.4515029  40.3513481   6.9604811  25.6615837  38.6684225   7.9247422
  25.4176769  39.4226286   7.3881697  25.9375767  39.0469573   8.7594669
  27.6154300  45.2122837   6.6024687  27.8271195  45.8554597   5.9259068
  27.5684048  44.3785154   6.1346617  25.2180529  37.8240658   3.5061259
  24.3565008  38.1221912   3.7977997  25.2442963  38.0411057   2.5742292
  18.9266179  45.9154330   2.8514828  19.4967536  46.3441599   2.2132313
  19.5174291  45.6336915   3.5499014  19.4191346  41.0817758  11.0975840
  18.7890006  41.7634039  11.3311236  19.3127434  40.9700839  10.1528978
  22.4956731  47.6378836   6.9307755  22.5601164  48.0999243   7.7665927
  21.7867655  47.0076201   7.0590065  12.9974021  41.0020044   4.4556755
  13.2482060  41.8867054   4.7214331  13.5333569  40.8224646   3.6831846
  18.6972088  35.3838524  13.4601091  18.3039034  34.8304722  14.1348735
  19.5138229  35.6949102  13.8507608  21.6140049  36.7996403  11.0521347
  22.3549763  37.4003556  10.9725810  21.8457972  36.0574040  10.4939390
  16.7581387  41.9852770   9.3299577  16.6434903  41.0838027   9.6306676
  15.9025905  42.2316467   8.9784393  23.8373225  49.9270510  10.9287078
  23.3937079  49.1406889  10.6107982  24.4990439  50.1149661  10.2630968
  18.5960346  51.4566312   5.4547756  19.1467771  51.3283375   4.6824750
  17.7571822  51.7561201   5.1042649  25.9354463  50.2073310   8.9568479
  25.9172939  51.0282191   8.4648748  26.8574383  50.0827385   9.1818620
  22.3927517  47.7217440   9.7991987  22.9255854  46.9605728   9.5691295
  21.8641598  47.4291091  10.5416142  25.5597212  32.8277506   5.3285629
  25.2161482  33.7179147   5.2524740  25.9276175  32.6379163   4.4655214
  23.1094606  37.6635817  -1.1056698  22.2536202  37.2742668  -1.2851059
  23.5221558  37.7427778  -1.9656912  24.6393753  35.1982161   3.2934862
  24.1358548  35.1612296   2.4802667  24.9324360  36.1074903   3.3531519
  20.8836639  35.2820890   2.3001044  21.7489635  35.0863699   1.9406933
  20.9514148  35.0531242   3.2270401  18.4898958  37.5123098  -0.3282589
  19.0642710  37.2898280  -1.0609396  19.0769940  37.5811793   0.4246012
  20.7921625  34.3864347  -1.6007520  20.1386038  34.0713364  -2.2250905
  20.7502100  33.7640088  -0.8747697  24.0259366  40.8746281   2.7240128
  23.1081927  41.0961228   2.5661816  24.4419509  40.9492591   1.8651835
  27.3584878  32.0871065   0.4303367  27.6643755  31.2268428   0.1429282
  28.0837483  32.6788685   0.2302361  21.6305958  42.3824858   0.9379558
  21.6854568  41.4298694   0.8622034  20.8197160  42.5384297   1.4220856
  19.5698318  41.0001918  -1.3030063  18.7566183  41.2996088  -0.8964871
  20.0657312  40.6057606  -0.5855581  25.1672529  41.4643742   7.5284830
  25.5221917  41.6915215   8.3879296  25.8144661  41.7962119   6.9062086
  19.0612392  38.5720273   4.3131172  19.7011772  38.4309032   3.6154135
  18.2289923  38.2854786   3.9369774  17.5365934  39.9558355   6.2602983
  18.2088988  39.7475717   5.6115632  16.7095721  39.7580441   5.8208215
  23.4391506  36.5820296   8.2768644  22.7919421  37.2810246   8.1833120
  24.2092522  37.0156440   8.6444892  26.8470304  46.8469148  11.3519197
  26.6955811  46.6179700  10.4349281  26.8374984  47.8039750  11.3650542
  23.6155641  44.4201061   6.3365463  24.5447701  44.5712221   6.1634431
  23.1946671  44.5085082   5.4814110  22.4143972  48.4451725   4.1064001
  22.2755058  48.0770510   4.9789939  21.6258569  48.9599365   3.9347959
  17.9393431  43.2300958   7.0205420  17.8013229  42.4981197   7.6216959
  18.8498355  43.1409858   6.7389608  20.5675732  42.9420918   6.5089100
  21.2775351  42.3014110   6.4675718  20.5245040  43.1933812   7.4315280
  28.5562511  49.8788271   9.4295679  28.4975057  49.1947491   8.7626262
  28.9582029  50.6207261   8.9776305  19.2804666  39.9286135   8.3284739
  18.7442023  39.4776874   8.9806335  18.6921375  40.0632044   7.5855203
  28.5579918  47.8427855   7.6609659  27.6706697  47.5053777   7.7836057
  29.1278469  47.1110886   7.8978424  15.0143787  39.0642143   5.4137734
  14.9301976  38.4567813   4.6788144  14.1926494  39.5551161   5.4147230
  25.1867501  37.5495707   0.7807929  25.6836201  36.7965669   0.4608999
  24.4154483  37.5860023   0.2151138  21.7702470  39.6913090   0.5079613
  21.4000257  39.1384130   1.1960519  22.2661562  39.0871223  -0.0445387
  19.5991668  50.1510585   7.6034631  20.3001128  50.7847068   7.7564025
  19.1286783  50.4925316   6.8430270  27.6286496  34.5165300   2.9287288
  26.7149576  34.7469527   3.0969494  28.0579597  34.6003744   3.7801320
  27.3992954  42.7055192   5.4287182  26.7464405  42.9531100   4.7739634
  27.7773334  41.8919330   5.0949659  23.4480527  43.4475003  11.9153219
  22.7721164  43.3469132  12.5855594  24.2708161  43.2914217  12.3789216
  17.1667804  37.1017080   6.7532719  17.2309130  37.9631911   6.3410117
  17.1034924  36.4891082   6.0205078  16.6420076  39.1740213  10.4005754
  17.2692115  38.7917290  11.0143278  15.7847995  38.9554415  10.7661446
  27.0414185  49.5803188  12.0059489  27.5854089  50.1933146  11.5114444
  26.4601030  50.1382767  12.5226502  16.9479866  39.0572639   2.3151657
  16.2266452  39.6708606   2.1759130  17.7373122  39.5930403   2.2368303
  19.7506179  36.3927065   8.5892309  20.2740581  36.6389362   9.3518618
  19.5318513  37.2247100   8.1695446  20.9558724  37.3340760   6.2741979
  20.6155545  36.5348573   6.6762659  20.2497731  37.6342471   5.7018813
  21.6075196  34.4190073   4.7269302  22.4301266  33.9450551   4.6048193
  21.8513260  35.1980556   5.2267989  19.1313775  41.1109193   2.5361281
  18.9858356  41.4249496   3.4285562  18.6538979  41.7294094   1.9832180
  20.9910158  38.1011741   2.5842171  20.9771727  37.2052835   2.2474468
  21.7082586  38.1082405   3.2180457  22.8436289  38.5349081   4.6295298
  22.5854066  39.4566152   4.6279628  22.3121329  38.1379516   5.3195762
  13.6059437  43.6514538   5.4748942  13.0612905  44.4274346   5.6069216
  14.4838787  43.9985342   5.3168064  20.3947054  36.9826122  -2.1470259
  20.5162965  36.0542768  -1.9479372  20.1049096  36.9964808  -3.0591944
  23.2638244  34.6681032   0.9896461  23.2859941  34.7320365   0.0348440
  23.6806303  33.8285541   1.1836967  14.3925459  42.7784434   8.3679099
  13.6507195  42.9267069   8.9543729  14.0718203  43.0392700   7.5045848
  22.3369122  52.3200412   8.1659489  22.6456248  52.0749559   9.0382189
  23.1344604  52.5247051   7.6778359  19.8788133  38.4958119  12.0619673
  19.9276289  39.3720242  11.6797443  20.4210648  37.9535512  11.4891316
  30.3642979  49.0399242  11.3420810  29.5738523  49.0223381  10.8025310
  30.1276334  49.5787536  12.0969847  30.4840854  45.8891709   8.6553539
  30.5338859  45.7241716   9.5969062  30.3754777  45.0218968   8.2651420
  27.7744616  41.8722637   9.9712846  28.6754479  41.7329101   9.6796843
  27.8492591  42.0377091  10.9111023  22.1087422  39.2489491   8.8166032
  21.2390731  39.5423057   8.5448620  22.3446902  39.8329936   9.5373296
  31.9859051  48.3088650   8.8995560  31.6943859  48.6718631   9.7359021
  31.3731182  47.5955658   8.7208892  30.2346239  43.4321265   7.3675618
  30.7100361  43.6248911   6.5594470  29.3111805  43.4880451   7.1219002
  24.8126456  35.4669108   6.3331452  25.3308400  36.2030135   6.0077941
  24.4581588  35.7733102   7.1678211  25.0639050  31.8869391   1.8532349
  25.3440804  31.2192580   2.4792775  25.8489657  32.0798486   1.3407013
  28.9347908  40.3087025   5.6003924  29.8865331  40.4085122   5.6216148
  28.7651359  39.5165293   6.1102008  26.9562288  37.3942608   5.7863325
  26.3612220  37.6747621   5.0909814  26.6711984  37.8836509   6.5580066
  31.5630474  40.3204188   4.7604507  31.0469523  39.5362645   4.5734436
  32.4470423  39.9922905   4.9251026  29.2241201  34.0645203   0.7200320
  29.0266022  33.7560292   1.6043651  29.8340907  34.7906842   0.8498249
  23.1358009  46.4506944  12.2174085  24.0561019  46.6285543  12.4114131
  23.1007592  45.5062989  12.0653784  16.1320082  44.3607978   4.8596866
  16.3506092  45.2925086   4.8784900  16.5445856  44.0015953   5.6451670
  23.0524300  34.8676064  -3.1527446  22.2425028  34.5223149  -2.7772200
  23.7408717  34.5583607  -2.5639834  24.9814848  33.9454110  -1.5303149
  25.5345887  34.3649564  -0.8713126  25.2184934  33.0189858  -1.4880193
  21.0047947  39.9341184  14.2499615  20.9044674  40.8835541  14.1811706
  20.7869489  39.6059423  13.3775685  26.8097221  35.4559693   0.1796835
  27.3097000  35.5676228  -0.6288846  27.4532829  35.1520746   0.8197644
  20.8679217  43.3638323  13.0664676  20.3846299  44.1638683  13.2728565
  20.9540156  43.3746268  12.1132120  16.7952555  47.2542858   5.1033110
  17.7495808  47.2226800   5.0363042  16.5965078  46.7933481   5.9183336
  17.3851937  45.8243974   7.6703908  18.2044826  46.3188052   7.6938745
  17.6588745  44.9075942   7.6421475  12.6386851  40.1582107   8.3696105
  13.2845715  39.6481061   8.8583330  12.4304002  40.8950789   8.9439530
  25.1640243  47.2262955  13.8688245  26.0331403  47.4003607  13.5074880
  24.6846995  48.0457372  13.7463975  19.3326424  54.3460056   5.5477679
  20.2353670  54.3783666   5.8644174  19.1063794  53.4160507   5.5624015
  24.9742581  31.0164929  -1.6234062  24.2074977  30.4623415  -1.4777380
  25.3853286  31.0886797  -0.7619910  16.9784342  37.3049725  12.4671119
  17.8415804  36.9486529  12.6774444  16.4049753  36.9663619  13.1546523
  29.5365843  50.7130441  13.4601091  29.1432788  50.1596640  14.1348735
  30.3531983  51.0241020  13.8507608  32.4533804  52.1288320  11.0521347
  33.1943517  52.7295473  10.9725810  32.6851727  51.3865958  10.4939390
  27.4813831  54.5032131  10.4005754  28.1085869  54.1209208  11.0143278
  26.6241749  54.2846333  10.7661446  30.7181888  53.8250037  12.0619673
  30.7670043  54.7012159  11.6797443  31.2604402  53.2827430  11.4891316
  31.8441702  55.2633102  14.2499615  31.7438429  56.2127459  14.1811706
  31.6263244  54.9351341  13.3775685  23.4780606  55.4874025   8.3696105
  24.1239469  54.9772979   8.8583330  23.2697757  56.2242707   8.9439530
  27.8178097  52.6341642  12.4671119  28.6809558  52.2778447  12.6774444
  27.2443507  52.2955537  13.1546523  28.5562512  26.8850393  -3.8459014
  28.4975058  26.2009614  -4.5128431  28.9582030  27.6269383  -4.2978389
  27.0414186  26.5865311  -1.2695204  27.5854090  27.1995269  -1.7640249
  26.4601031  27.1444889  -0.7528191  30.3642980  26.0461365  -1.9333883
  29.5738524  26.0285504  -2.4729384  30.1276335  26.5849658  -1.1784846
  31.9859052  25.3150773  -4.3759133  31.6943860  25.6780753  -3.5395672
  31.3731183  24.6017781  -4.5545801  25.1640245  24.2325078   0.5933552
  26.0331404  24.4065730   0.2320187  24.6846996  25.0519494   0.4709281
  29.5365844  27.7192564   0.1846397  29.1432790  27.1658762   0.8594042
  30.3531984  28.0303142   0.5752915  32.4533805  29.1350443  -2.2233346
  33.1943519  29.7357596  -2.3028884  32.6851728  28.3928081  -2.7815304
  27.4813832  31.5094253  -2.8748940  28.1085871  31.1271331  -2.2611415
  26.6241751  31.2908455  -2.5093247  30.7181889  30.8312159  -1.2135020
  30.7670045  31.7074282  -1.5957250  31.2604403  30.2889552  -1.7863377
  31.8441703  32.2695224   0.9744921  31.7438430  33.2189581   0.9057013
  31.6263245  31.9413463   0.1020992  23.4780607  32.4936148  -4.9058588
  24.1239470  31.9835102  -4.4171363  23.2697758  33.2304829  -4.3315163
  27.8178098  29.6403765  -0.8083574  28.6809559  29.2840570  -0.5980250
  27.2443509  29.3017660  -0.1208170
  56.8688225  56.8688225  56.8688225 109.4712190 109.4712190 109.4712190
