default_name
 11709
  24.8006059  40.7990525  33.2890695  24.6123354  39.8271691  33.7452458
  23.5424235  39.7058237  33.9145448  25.1397701  39.7636636  34.6970223
  25.0962149  38.6914599  32.8414065  25.6195915  38.9375651  31.7547947
  25.4876165  37.6911850  33.6240941  25.0027459  37.5094522  34.4912579
  26.6390413  36.8621551  33.2891964  27.5019195  37.4914698  33.0731265
  27.0049596  35.9546426  34.4653898  27.8135169  36.4421233  35.0100887
  26.1259225  35.8854116  35.1061712  27.4399726  34.5650985  34.0548086
  28.6734969  34.3511435  33.4529399  29.3217974  35.1970902  33.2804819
  29.0753106  33.0843766  33.0760122  30.0384219  32.9398947  32.6091593
  28.2410339  32.0103932  33.2989089  28.6367923  30.7473015  32.9252716
  28.0068403  30.1065352  33.2904194  27.0085380  32.1956539  33.8958195
  26.3529601  31.3554893  34.0718281  26.6164220  33.4675531  34.2690574
  25.6556167  33.6209614  34.7359579  26.3493155  36.0218513  32.0491926
  25.2391335  35.5176185  31.8819593  27.3527816  35.8794543  31.1901903
  28.2753974  36.2115002  31.4323162  27.1540598  35.2910900  29.8712005
  26.1014419  35.3455972  29.5933561  27.9551627  36.0574555  28.8166869
  28.8987010  36.3769551  29.2591288  28.1551334  35.3909759  27.9776894
  27.2404615  37.1922857  28.3582248  27.7631353  37.6547991  27.6990638
  27.5631074  33.8221413  29.8738308  28.7350651  33.5005289  30.0694083
  26.5911433  32.9422325  29.6581683  25.2486245  33.3008634  29.2918350
  25.3021747  33.9306261  28.4037857  24.8189599  33.8709598  30.1155325
  24.5261026  32.0315707  29.0462436  24.2549828  31.9765154  27.9919371
  23.6219063  32.0149558  29.6547289  25.4464951  30.9232036  29.4303228
  25.5369114  30.3311522  28.5196093  25.0759841  30.2920598  30.2380844
  26.8093282  31.5081381  29.8079502  27.1910351  31.2911752  30.8053338
  27.8362790  31.0148914  28.7947599  28.3962054  29.9298423  28.9495568
  28.0769960  31.8196962  27.7637829  27.4677746  32.6047182  27.5829816
  29.1901768  31.5845948  26.8525256  29.7177306  30.6733646  27.1350137
  28.7049411  31.4146586  25.4001917  28.1845689  32.3191784  25.0827981
  29.8841927  31.1838840  24.4683206  29.5212680  31.0664309  23.4459535
  30.4163056  30.2813384  24.7710766  30.5597551  32.0390793  24.5180546
  27.8117147  30.2964655  25.3199359  26.9474803  30.6246862  25.4899917
  30.1835951  32.7395172  26.9138468  29.7901774  33.9051821  26.8730103
  31.4658587  32.4065048  27.0127254  31.8143945  31.4802116  27.1400157
  32.5280356  33.3984436  26.8911952  32.2076143  34.3424945  27.3310090
  33.7808551  32.9357165  27.6366472  33.4779644  32.2825443  28.4464573
  34.3662523  32.3578288  26.9328170  34.5217665  34.0591298  28.1504476
  35.9986872  33.8519908  28.7015844  36.4272376  35.1668641  29.2417980
  35.9284277  32.7185483  29.6584024  36.7827395  33.5257848  27.4530057
  32.8555780  33.6521397  25.4229431  32.8879298  34.7998054  24.9798066
  33.0953982  32.5756990  24.6811866  33.1952026  31.1961124  25.0710185
  32.2645250  30.9296319  25.5719453  34.0228233  31.1141539  25.7755934
  33.4235809  30.4070064  23.8362083  32.4869828  29.9136057  23.5765187
  34.1815209  29.6547561  24.0547212  33.8783498  31.3208314  22.7473231
  33.3522904  31.0581994  21.8295078  34.9500471  31.3608761  22.5524873
  33.3896115  32.6774610  23.2565716  34.0848114  33.4978879  23.0767527
  32.1148454  32.9623616  22.4681656  31.0792032  33.2837148  23.0492193
  32.2033513  32.8422432  21.1474475  33.0907021  32.6200197  20.7192833
  31.0545957  33.0691385  20.2791744  30.4080769  33.8347819  20.7086820
  31.5116431  33.5625662  18.9039556  32.3744623  34.2153726  19.0361908
  31.7977623  32.7007264  18.3010725  30.4771286  34.2747025  18.2482364
  30.7879279  34.5727823  17.3902434  30.2349728  31.7915788  20.1324822
  29.0145530  31.8463120  19.9792710  30.9142610  30.6503865  20.1803320
  31.9174018  30.6649786  20.2969297  30.2555627  29.3594371  20.0216805
  29.2029108  29.5058486  19.7797056  30.8921441  28.5702726  18.8753082
  30.5311160  27.5445088  18.9499179  30.5397280  29.0120498  17.9432481
  32.4038299  28.5747695  18.8947960  33.1170345  29.7542461  18.7248309
  32.5723083  30.6752357  18.5785444  34.4995543  29.7638948  18.7415628
  35.0344076  30.6924884  18.6084016  35.1857738  28.5842014  18.9299674
  36.5622068  28.5892561  18.9476193  36.8697881  29.4642295  18.6615488
  34.5008068  27.3971985  19.1013448  35.0380526  26.4707398  19.2490918
  33.1193558  27.3983747  19.0826944  32.5758586  26.4752654  19.2154008
  30.3321042  28.5580923  21.3156596  31.3516906  28.5815018  22.0064167
  29.2509039  27.8534426  21.6350258  28.4733711  27.8031070  20.9923686
  29.1294906  27.1774396  22.9213060  29.6463103  27.7483879  23.6926843
  27.6597047  27.0659526  23.3306288  27.5894313  26.4243104  24.2089546
  27.2894686  28.0609484  23.5776280  26.8786667  26.5183592  22.2821526
  26.8642028  25.5875509  22.4102178  29.7627615  25.7920703  22.8584580
  29.6355482  25.0923629  21.8543956  30.4413290  25.4075868  23.9355446
  30.4677770  26.0624049  25.2139924  29.4857647  26.5147885  25.3521989
  31.2221541  26.8463066  25.1468189  30.7854950  25.0599310  26.2601509
  29.9100166  24.5278447  26.6323347  31.3435695  25.4727601  27.1005236
  31.6510801  24.1717139  25.4309865  31.6347341  23.2072042  25.9384832
  32.6836021  24.4961157  25.3015200  30.9660380  24.0538161  24.0676603
  31.5988429  23.8144604  23.2134901  29.8268600  23.0413262  24.1053902
  29.9950449  21.8957427  23.6868066  28.6738005  23.4725328  24.6059866
  28.4882297  24.4635857  24.6649530  27.6644493  22.5488102  25.1111129
  27.8887228  21.5350245  24.7804351  27.6258031  22.5417343  26.6504668
  26.6453959  22.2022593  26.9884378  28.6808667  21.5976341  27.2055755
  29.6684053  21.9225800  26.8780435  28.6391216  21.6053091  28.2947484
  28.4923765  20.5873571  26.8423779  27.8689234  23.8658865  27.1438981
  27.0849289  24.1421546  27.5810428  26.2858209  22.9221333  24.5792495
  26.1338314  23.9315340  23.8902186  25.2899486  22.1044447  24.9041256
  25.3676315  21.3056379  25.4970608  23.9261496  22.3368748  24.4450857
  23.9089826  23.1600123  23.7299026  23.3779404  21.0949053  23.7402976
  24.1072181  20.2985848  23.8308337  22.4845299  20.8021509  24.2770785
  23.1017837  21.3647625  22.3532073  22.1946499  20.3651214  21.5131745
  22.7584982  20.3484521  20.1386989  22.1938257  19.0811055  22.2590248
  20.8490545  21.0502974  21.5111542  23.0249297  22.7150174  25.6164272
  23.4073016  22.5524724  26.7758084  21.8359212  23.2177659  25.3038498
  20.9339830  23.7196788  26.3037083  21.5233884  24.2257374  27.0683038
  20.4147368  22.8708179  26.7485877  20.0090813  24.6407269  25.5935658
  20.2509302  25.6605997  25.8926773  18.9910135  24.4037576  25.9025719
  20.1775158  24.4496720  24.1235312  20.1311764  25.4216472  23.6323940
  19.4753219  23.7673058  23.6445741  21.5968396  23.8875695  24.0309098
  21.7262828  23.1832095  23.2092667  22.5917047  25.0270366  23.8322463
  23.4362855  25.2745597  24.6918676  22.4812701  25.7105869  22.6986440
  21.7728999  25.4585202  22.0242752  23.3915749  26.8004464  22.3699897
  24.4244672  26.4696264  22.4788779  23.1948169  27.2448375  20.9188702
  23.3845016  26.4038503  20.2518923  22.1714564  27.5937830  20.7807745
  24.1046893  28.3061706  20.6178626  23.9812597  28.5849429  19.7075599
  23.1763195  27.9798194  23.3121644  24.1284301  28.6669850  23.6807482
  21.9233457  28.2034425  23.6945104  21.2003963  27.5346751  23.4704709
  21.5430111  29.4232578  24.3986447  22.2306041  30.2300300  24.1437946
  20.1360591  29.8619516  23.9884219  19.9190159  30.7888905  24.5192474
  20.1581292  30.0547172  22.9158295  19.0622610  28.8427891  24.2949435
  18.5212171  28.0511410  23.2905936  18.8804248  28.1750172  22.2803077
  17.5397007  27.1183163  23.5659562  17.1319382  26.5126058  22.7696959
  17.0870155  26.9670052  24.8588271  16.1098239  26.0392106  25.1368341
  16.0377080  25.9467258  26.1000256  17.6078537  27.7419564  25.8765540
  17.2544365  27.6251879  26.8910768  18.5891809  28.6717516  25.5902467
  19.0025447  29.2815403  26.3797992  21.6067469  29.2112140  25.9070774
  21.5802613  30.1722432  26.6752637  21.6910216  27.9503465  26.3195940
  21.6839776  27.1979490  25.6458376  21.7476532  27.6093327  27.7359328
  22.0649128  28.4765189  28.3151914  20.3668252  27.1890108  28.2427260
  19.8939504  26.5612644  27.4874623  20.4915509  26.6180532  29.1628081
  19.5506731  28.3190332  28.4955462  20.0227572  29.0718612  28.1879043
  22.7573349  26.4913280  27.9756771  22.4030520  25.4301495  28.4892506
  24.0074128  26.7383704  27.6005182  24.4857756  27.9420595  26.9770996
  24.1419533  28.7887161  27.5712873  24.0523254  27.9996619  25.9786499
  25.9643108  27.8310390  26.9460822  26.3940097  28.2953107  27.8337250
  26.3582639  28.3190506  26.0545963  26.2345403  26.3637469  26.9135587
  27.1133383  26.1619458  27.5260040  26.4034927  25.9920296  25.9029247
  25.0075948  25.6806378  27.5229582  24.6599713  24.8870410  26.8624553
  25.2503818  25.0727287  28.9001303  25.8843220  25.6919614  29.7537911
  24.7414662  23.8616864  29.1053606  24.2677455  23.3797513  28.3547431
  24.8171696  23.2089561  30.4065513  24.5233106  23.9061395  31.1904463
  23.8754940  21.9925461  30.4826927  23.8631087  21.4811887  29.5190755
  24.3562735  21.0131863  31.5426585  24.3746747  21.5080363  32.5136809
  23.6795241  20.1596829  31.5831717  25.3596282  20.6690581  31.2917487
  22.5501147  22.4303267  30.8086561  22.6030169  22.8626815  31.6414950
  26.2440974  22.7544483  30.6927988  26.8615914  22.0773737  29.8711533
  26.7569965  23.1313888  31.8596649  26.3010774  23.7106264  32.5322128
  28.0674633  22.6732984  32.3042443  28.3928981  23.2557834  33.1670157
  28.0071897  21.2045906  32.7290967  27.0870712  20.7750318  32.3509032
  28.8393496  20.7073849  32.2471035  28.0671274  21.0761619  34.1614565
  27.2518200  19.9229873  34.8915691  27.7417389  18.6427956  34.3185643
  27.4499266  20.1319026  36.3475808  25.8321421  20.1777942  34.4447076
  29.1010270  22.8570543  31.1980189  29.6835859  21.8842517  30.7196013
  29.3202472  24.1059794  30.8011942  28.8518032  25.2901630  31.4683810
  28.9641758  25.1404391  32.5421852  27.7963410  25.4188035  31.2284849
  29.6870637  26.4035129  30.9583636  30.4472460  26.6495514  31.6997724
  29.0552444  27.2743888  30.7837757  30.3020916  25.9275521  29.6844613
  31.3572046  26.1865920  29.7724040  29.8932944  26.3737546  28.7778811
  30.1423287  24.4069726  29.6355656  29.6917836  23.9785308  28.7403585
  31.5340807  23.8036046  29.7935893  32.1989879  24.0234644  30.8056872
  31.9630185  23.0458116  28.7898667  31.3282735  22.7836443  28.0492814
  33.3270449  22.5335906  28.7446061  33.5766380  22.0539267  29.6919982
  33.4689841  21.4850421  27.6402102  33.9082728  21.9597225  26.7628259
  34.1297816  20.6934538  27.9935298  32.2110371  20.9315301  27.2971160
  31.8948263  20.4789337  28.0580321  34.3181041  23.6698114  28.5197705
  34.1611970  24.4595136  27.5881115  35.3310045  23.7443658  29.3760254
  35.4110143  23.0699265  30.1235761  36.0211068  24.4754877  29.2794881
  14.6190062  29.5132956  14.9347601  27.4310777  13.6469953  23.0405686
  11.1409913  48.3834173  45.6319928  15.8612670  40.0382146  20.5391844
  40.8062798  14.6242994  48.4119617  34.8560789  21.4540661   6.3218660
  24.2788182  30.0951632  59.1505531  23.6049881  30.3983329  59.7590489
  24.6654004  30.8980713  58.8010988  28.2444923  27.6737116  60.4245354
  28.9395828  28.2943808  60.6432669  28.5868073  26.8232467  60.6997732
  22.3359791  27.7798867  59.3320448  21.7633759  28.3989055  58.8790919
  22.9092585  28.3298229  59.8660370  25.5557051  28.0636018  60.4629030
  26.4887724  27.9981579  60.6661905  25.4680264  28.8992284  60.0043563
  28.1845068  27.3801888  57.4232977  28.1058699  27.0461751  58.3168735
  29.0054735  27.8723656  57.4224450  25.7549020  24.6969883  57.0442956
  26.4584870  24.9019886  57.6600611  25.0311668  25.2646645  57.3092039
  28.9987953  31.4337187  56.8074275  28.1217419  31.3125988  56.4436522
  29.4745706  30.6423265  56.5553164  31.7443262  32.3701574  56.6091385
  30.8374717  32.0734687  56.6854099  32.0219243  32.0731392  55.7425672
  30.5142046  29.2288509  56.7503365  31.3761210  29.5543408  57.0099182
  30.6992390  28.4420005  56.2376430  31.4671489  26.4684552  60.0383074
  31.4550159  27.4126392  60.1951344  32.3594911  26.2854698  59.7442535
  24.2788184   7.1013755  45.8750837  23.6049882   7.4045452  46.4835795
  24.6654005   7.9042835  45.5256294  28.2444924   4.6799238  47.1490661
  28.9395829   5.3005931  47.3677975  28.5868074   3.8294590  47.4243039
  22.3359793   4.7860990  46.0565754  21.7633760   5.4051177  45.6036226
  22.9092586   5.3360352  46.5905676  25.5557052   5.0698140  47.1874337
  26.4887726   5.0043702  47.3907212  25.4680265   5.9054407  46.7288869
  28.1845069   4.3864010  44.1478284  28.1058701   4.0523874  45.0414042
  29.0054736   4.8785778  44.1469756  25.7549021   1.7032006  43.7688262
  26.4584871   1.9082008  44.3845918  25.0311670   2.2708768  44.0337346
  36.2919993  12.6584186  55.9141899  36.9298403  12.5390934  55.2105239
  36.1740836  13.6065030  55.9729851  28.9596515  14.4647091  51.8400315
  28.3961381  14.3737028  51.0716603  28.8448910  13.6446995  52.3202807
  34.5396074  18.1318058  47.1514780  33.8884054  18.7172139  46.7648794
  35.3340437  18.6624253  47.2109817  28.4651701  15.2207196  47.5501914
  29.2382577  14.6736183  47.4114790  28.8177100  16.0851445  47.7616375
  30.8017979  11.3799862  45.1820364  31.0543500  10.8581383  44.4203827
  29.8642538  11.2166007  45.2847048  35.8461262  10.3835640  52.9895107
  36.6324351   9.9655063  52.6385524  36.1099966  11.2881732  53.1576756
  36.0171339  15.8208490  47.6883764  35.3817172  15.8943117  48.4004669
  35.6868746  16.4102089  47.0102843  30.5214268  13.2827968  47.3844739
  30.4050526  12.6072871  48.0525823  30.6316528  12.7960342  46.5676892
  32.8645809  12.7438115  51.0891428  32.5004016  12.2168736  51.8004350
  33.7212925  12.3536584  50.9157914  32.5051296   7.7728014  46.0852777
  32.6725698   8.6408251  46.4523248  32.3148465   7.9355296  45.1614066
  32.4840517  10.2285672  47.0699444  32.3640142  10.6742723  47.9084924
  31.7893105  10.5770990  46.5112982  30.2447409  22.9989314  50.7189575
  30.1671438  23.9497139  50.7978055  29.6409052  22.6535186  51.3764501
  38.1825583  10.7007145  47.8979778  39.0943439  10.9334532  47.7227475
  37.6735230  11.2844189  47.3354856  36.7895165  15.6832964  55.2893359
  36.1604028  15.8478678  54.5869427  36.4020827  16.0974573  56.0604323
  40.6684397  16.6187401  52.6437723  39.9835435  16.9986303  52.0934756
  40.7528246  17.2282728  53.3769671  32.3423127  15.4207372  52.5543444
  32.8061472  15.6995075  51.7648067  32.0779925  14.5190816  52.3716535
  31.2792013  11.5430524  49.3633009  31.9816056  11.9951568  49.8306936
  30.9472642  10.9014343  49.9912902  32.5185778  18.3571467  49.4395115
  32.3831452  19.2023002  49.8679962  33.0595590  18.5590744  48.6761048
  25.9715175  15.8746905  50.0123040  26.4839696  16.6690155  50.1628604
  26.6237888  15.1773195  49.9456641  27.7810060  18.9912661  52.0945793
  27.9576688  19.9130626  51.9066777  28.5766893  18.6771080  52.5240173
  23.9364092  14.2035559  50.7882610  24.7739314  14.6132567  50.5716318
  24.1142360  13.2635001  50.7582804  35.8328524  11.8710640  46.4766443
  35.3175147  12.6415244  46.7154830  35.5605832  11.1975776  47.0999505
  35.6214827   9.7437732  48.3026224  35.3164963  10.0583881  49.1536367
  36.5745269   9.8219152  48.3453557  34.0661259  15.9027955  49.9519178
  33.5382621  15.1680715  49.6392416  33.5648762  16.6802631  49.7059147
  39.0454105  14.0976976  55.0686225  38.3877779  14.7876237  55.1566353
  39.8494504  14.4873407  55.4120211  37.8559564  12.4521348  53.1190166
  38.3691446  13.0851340  53.6211876  38.5060788  11.8522544  52.7533526
  29.1249574   8.5952082  46.3321675  28.2886886   8.9326769  46.6530950
  28.9854343   8.4601062  45.3948812  32.2113859  13.7208165  42.9554151
  31.3040921  13.4897419  43.1545300  32.7084891  12.9245785  43.1428133
  35.1181938  22.4305673  45.8750837  34.4443637  22.7337369  46.4835795
  35.5047760  23.2334753  45.5256294  35.1175442  11.3262219  50.4951187
  35.8647261  11.8383617  50.1858309  35.3867032  11.0046272  51.3555581
  33.3902093  13.8220760  47.4778141  32.4813312  13.5379793  47.5750611
  33.4197176  14.2419839  46.6181448  38.6221360  17.4327350  51.2469309
  38.1683687  16.5918260  51.3034499  37.9915327  18.0688748  51.5844089
  37.5654280   8.3619336  52.4769976  36.8277036   7.8496722  52.8080219
  37.8181053   7.9219717  51.6653253  37.0654299  19.2703846  52.1819127
  37.3577274  19.8308903  51.4631493  37.5752920  19.5632407  52.9372286
  33.0878180  15.3629504  44.8166220  32.6497610  14.6465363  44.3571857
  33.8288621  15.5905619  44.2551311  29.8779347  10.0526441  51.3378316
  29.0647212  10.3520611  51.7443508  30.3738341   9.6582129  52.0552798
  32.0287924  20.0484197  53.2712580  31.9864103  20.2745044  52.3421112
  32.9450623  19.8147572  53.4198381  41.2051295  13.6386701  50.8742539
  41.0669194  13.8288297  49.9463728  40.8487514  14.4006084  51.3310590
  30.1453725  16.9247226  53.0674543  30.9394324  16.4297547  52.8657118
  29.4345418  16.3965090  52.7042249  34.9648570  19.3065322  57.4186911
  35.0185592  19.8756258  58.1864627  34.0963351  19.4767207  57.0540948
  26.4536489  11.0690308  49.1434296  25.5234077  11.0074764  49.3604258
  26.5493961  10.5466261  48.3470937  33.3173153  22.5985345  48.0897917
  33.4924909  22.1273388  48.9043539  32.6305941  23.2251111  48.3179177
  34.2730216  16.8757851  54.1361218  33.9380049  16.8358621  55.0318868
  33.7734162  16.2102567  53.6631628  37.2089408  14.2213885  44.4098278
  36.5918579  13.4960714  44.3131330  36.7405896  14.9823246  44.0665352
  27.8834238  25.7474708  54.8637777  28.1230837  26.3793232  55.5416795
  27.0403435  25.3962748  55.1503136  28.9987954   8.4399310  43.5319582
  28.1217420   8.3188111  43.1681828  29.4745707   7.6485388  43.2798470
  32.3962100  21.5553830  57.2679281  32.3232272  22.3608802  57.7798585
  31.9539493  21.7545796  56.4427302  32.1851880  20.7925600  50.7782102
  31.4019402  21.3347280  50.8720327  32.8844625  21.3099580  51.1776343
  34.8560784  21.4540664  59.4237439  35.5688756  22.0888129  59.3513341
  34.3650812  21.5504530  58.6077441  36.5778311  15.3591917  50.9954731
  35.6434589  15.4793379  50.8259435  36.7554979  14.4564384  50.7314741
  39.9650862  11.2009236  51.5304765  40.4311314  12.0337228  51.4565068
  40.4158363  10.7354218  52.2350024  38.0327093  17.5453057  48.5290917
  38.3086937  17.4309652  49.4384791  37.1631592  17.1470542  48.4903090
  34.6681157  21.7939408  52.1723731  34.8503552  20.9761064  52.6351483
  35.4914143  22.0107101  51.7348621  35.0023323  20.7207593  49.4338779
  35.5311089  20.2100048  48.8208941  35.2651542  20.4050124  50.2984312
  28.3579071  21.7722710  52.1936555  27.6889446  22.2568838  51.7100595
  28.2191940  22.0191931  53.1079934  32.4984339  23.8066454  58.7919214
  33.0502647  23.9698075  59.5568299  32.8390533  24.3970891  58.1199239
  23.7266648  10.0341165  48.9732487  24.0220089   9.1251843  48.9199541
  22.8254683  10.0128904  48.6513490  35.6352726  21.7548429  55.7782896
  35.5103866  20.9538169  55.2693841  36.2931818  22.2494622  55.2896866
  37.6987635  19.5557449  57.4062446  36.7517970  19.4362800  57.3340773
  38.0470408  18.6679947  57.4888707  34.7034068  19.3510165  53.6066798
  34.5559031  18.4226873  53.7874368  35.5287562  19.3730256  53.1223873
  28.5696312   8.0028232  49.4647290  28.9092385   8.5314154  48.7425899
  29.0168433   8.3408639  50.2405857  38.3068190  20.1738724  54.6931671
  39.2314737  19.9681585  54.5556122  38.1383493  19.9255125  55.6021012
  30.5564460   6.5002854  47.6640583  31.2772822   6.8784107  47.1604300
  29.9329764   7.2191731  47.7675561  34.6995582   7.2048003  48.5998915
  34.9159197   8.0872641  48.2987744  34.2189650   6.8134216  47.8704557
  38.0963506  20.6924392  50.0493762  38.2700384  20.1270814  49.2967615
  38.5892397  21.4925286  49.8673252  39.0838679  20.0091156  47.1490661
  39.7789583  20.6297849  47.3677975  39.4261829  19.1586507  47.4243039
  40.9830102  17.4590862  48.6777991  41.5081426  17.7978134  47.9527311
  40.8952454  16.5237877  48.4941126  32.6670763  23.5262845  53.0373245
  32.2275753  23.0339224  53.7306101  33.4178880  22.9835812  52.7965320
  25.1463102  19.7174386  53.0397873  25.9721121  19.4178158  52.6596516
  24.7957154  18.9482008  53.4887661  30.1144635  19.0700854  55.1095546
  29.4924644  18.4071559  54.8097774  30.7849502  19.0961986  54.4269194
  29.6758142  17.6204777  48.5854007  29.8246262  18.3040242  47.9320680
  30.4824585  17.6009867  49.1003463  27.4310775  13.6469955  49.5915076
  27.1856817  12.7432285  49.7895286  27.6006689  13.6487105  48.6494554
  26.7006422   9.3798312  47.0901237  26.0075667   9.4542667  46.4341273
  26.4558174   8.6158656  47.6122754  33.1753547  20.1152908  46.0565754
  32.6027514  20.7343095  45.6036226  33.7486341  20.6652269  46.5905676
  36.3950807  20.3990058  47.1874337  37.3281480  20.3335619  47.3907212
  36.3074020  21.2346325  46.7288869  39.0238824  19.7155928  44.1478284
  38.9452455  19.3815792  45.0414042  39.8448490  20.2077696  44.1469756
  33.5600346  11.4513720  43.3981807  34.5059450  11.3219929  43.4670225
  33.1814591  10.7128382  43.8751235  31.7443263   9.3763697  43.3336692
  30.8374718   9.0796810  43.4099406  32.0219244   9.0793515  42.4670978
  30.5142047   6.2350632  43.4748671  31.3761211   6.5605530  43.7344488
  30.6992392   5.4482128  42.9621737  38.6674684   5.1079158  50.6183894
  38.0873353   5.7663963  50.2361947  38.4010617   4.2856503  50.2071312
  37.4499562   7.2679249  49.6740242  36.5625417   7.5528900  49.4560437
  37.8653551   7.1073012  48.8267519  25.4583812  21.8487000  54.7611687
  25.3238280  21.0887401  54.1949685  25.0415875  22.5727900  54.2940476
  36.5942775  17.0323924  43.7688262  37.2978626  17.2373926  44.3845918
  35.8705424  17.6000685  44.0337346  37.4240586  12.7833785  49.8890533
  37.3675787  13.2402336  49.0498165  37.9768928  12.0224469  49.7113375
  28.6152938  22.7456317  54.9730130  28.4985322  23.6901750  54.8708820
  27.7945385  22.4429879  55.3615929  38.5029473  17.4706453  45.8186722
  39.3375077  17.0387651  45.6364197  38.3413816  17.2988466  46.7463617
  38.1575365  13.9738566  47.1843062  38.1024169  13.8082837  46.2431506
  37.5321420  14.6814599  47.3405251  31.4671490   3.4746675  46.7628380
  31.4550160   4.4188515  46.9196651  32.3594912   3.2916820  46.4687841
  29.6407452  23.3984579  58.1886058  30.5434699  23.4308189  58.5052553
  29.4144822  22.4685030  58.2032394  31.3961054  22.1515565  54.8496137
  30.4456685  22.1517427  54.7360509  31.6993541  21.4048300  54.3332171
  39.7990270  29.7939008  51.8400315  39.2355135  29.7028945  51.0716603
  39.6842665  28.9738913  52.3202807  37.3454702  31.2890200  54.6784535
  38.1375994  30.9481025  54.2630835  37.5851352  31.3985175  55.5986689
  45.3789829  33.4609976  47.1514780  44.7277808  34.0464057  46.7648794
  46.1734191  33.9916171  47.2109817  39.3045456  30.5499113  47.5501914
  40.0776332  30.0028100  47.4114790  39.6570855  31.4143363  47.7616375
  41.6411734  26.7091779  45.1820364  41.8937254  26.1873301  44.4203827
  40.7036293  26.5457925  45.2847048  46.6855016  25.7127558  52.9895107
  47.4718106  25.2946981  52.6385524  46.9493721  26.6173650  53.1576756
  46.8565094  31.1500408  47.6883764  46.2210927  31.2235035  48.4004669
  46.5262500  31.7394007  47.0102843  41.3608022  28.6119885  47.3844739
  41.2444280  27.9364789  48.0525823  41.4710282  28.1252259  46.5676892
  43.7039563  28.0730032  51.0891428  43.3397770  27.5460653  51.8004350
  44.5606679  27.6828501  50.9157914  43.3445050  23.1019932  46.0852777
  43.5119453  23.9700169  46.4523248  43.1542219  23.2647214  45.1614066
  39.5532865  28.0150708  53.7855312  38.6283361  27.8826922  53.9933003
  39.8017278  28.7944927  54.2825254  43.3234271  25.5577590  47.0699444
  43.2033896  26.0034640  47.9084924  42.6286859  25.9062907  46.5112982
  36.9141676  27.6583981  54.6199101  37.0434057  27.9118460  55.5338512
  36.2339127  28.2511689  54.3003756  49.0219337  26.0299063  47.8979778
  49.9337193  26.2626450  47.7227475  48.5128984  26.6136107  47.3354856
  43.1816881  30.7499289  52.5543444  43.6455227  31.0286992  51.7648067
  42.9173680  29.8482734  52.3716535  42.1185768  26.8722442  49.3633009
  42.8209811  27.3243485  49.8306936  41.7866396  26.2306261  49.9912902
  35.8611101  25.1305994  54.6650143  35.0710155  25.3863523  54.1890253
  36.3522349  25.9454332  54.7702183  37.8125847  25.4950574  51.6233620
  37.0157010  25.6069268  52.1417115  37.5851439  25.8337226  50.7574510
  34.1448804  25.3836485  57.0965134  34.3956843  26.2683495  57.3622710
  34.6808353  25.2041086  56.3240225  43.3579532  33.6863384  49.4395115
  43.2225207  34.5314920  49.8679962  43.8989345  33.8882662  48.6761048
  36.8108930  31.2038822  50.0123040  37.3233450  31.9982073  50.1628604
  37.4631642  30.5065113  49.9456641  38.6203814  34.3204579  52.0945793
  38.7970443  35.2422543  51.9066777  39.4160648  34.0062998  52.5240173
  34.7757846  29.5327477  50.7882610  35.6133068  29.9424485  50.5716318
  34.9536114  28.5926919  50.7582804  46.6722278  27.2002557  46.4766443
  46.1568902  27.9707162  46.7154830  46.3999587  26.5267693  47.0999505
  44.2569389  22.0452258  51.5351681  43.4010986  21.6559108  51.3557320
  44.6696341  22.1244219  50.6751467  42.0311422  19.6637331  54.9409423
  42.8964419  19.4680140  54.5815312  42.0988931  19.4347683  55.8678780
  51.6456553  29.9534912  48.4119617  50.8685995  29.6146071  47.9674779
  52.3248034  29.9587535  47.7374582  46.4608582  25.0729649  48.3026224
  46.1558717  25.3875799  49.1536367  47.4139024  25.1511069  48.3453557
  44.9055013  31.2319873  49.9519178  44.3776375  30.4972632  49.6392416
  44.4042516  32.0094549  49.7059147  39.6373741  21.8939539  52.3125790
  40.2117493  21.6714720  51.5798983  40.2244723  21.9628234  53.0654391
  39.9643328  23.9244000  46.3321675  39.1280640  24.2618687  46.6530950
  39.8248098  23.7892980  45.3948812  41.9396409  18.7680788  51.0400859
  41.2860821  18.4529805  50.4157474  41.8976883  18.1456528  51.7660682
  43.0507614  29.0500083  42.9554151  42.1434675  28.8189336  43.1545300
  43.5478646  28.2537702  43.1428133  45.9575692  37.7597590  45.8750837
  45.2837391  38.0629287  46.4835795  46.3441514  38.5626671  45.5256294
  45.1734149  25.2562721  55.3648507  44.2556710  25.4777668  55.2070195
  45.5894293  25.3309032  54.5060214  45.9569197  26.6554137  50.4951187
  46.7041016  27.1675534  50.1858309  46.2260786  26.3338190  51.3555581
  44.2295847  29.1512678  47.4778141  43.3207066  28.8671711  47.5750611
  44.2590931  29.5711756  46.6181448  48.4048034  23.6911253  52.4769976
  47.6670791  23.1788640  52.8080219  48.6574808  23.2511635  51.6653253
  34.7984017  26.8718192  51.4593344  34.6008417  26.2787553  50.7344410
  34.2430681  26.5670402  52.1769282  42.7780741  26.7641298  53.5787937
  42.8329351  25.8115135  53.5030413  41.9671943  26.9200738  54.0629235
  43.9271935  30.6921422  44.8166220  43.4891365  29.9757280  44.3571857
  44.6682376  30.9197536  44.2551311  40.7173101  25.3818358  51.3378316
  39.9040967  25.6812529  51.7443508  41.2132095  24.9874047  52.0552798
  40.2087176  22.9536714  56.9539551  40.8486555  22.8125473  56.2562514
  39.3764706  22.6671227  56.5778153  40.9847480  32.2539144  53.0674543
  41.7788078  31.7589464  52.8657118  40.2739172  31.7257007  52.7042249
  37.2930243  26.3982226  49.1434296  36.3627831  26.3366681  49.3604258
  37.3887715  25.8758179  48.3470937  37.2115792  22.9237039  51.7312537
  37.4722609  23.8382372  51.6221698  38.0332965  22.4561481  51.8809150
  38.6840718  24.3374796  58.9011362  39.3563771  24.1292158  58.2524011
  37.8570504  24.1396882  58.4616594  44.1566908  37.9277263  48.0897917
  44.3318663  37.4565306  48.9043539  43.4699696  38.5543029  48.3179177
  48.0483162  29.5505803  44.4098278  47.4312333  28.8252631  44.3131330
  47.5799651  30.3115163  44.0665352  39.8381708  23.7691227  43.5319582
  38.9611175  23.6480028  43.1681828  40.3139461  22.9777306  43.2798470
  31.3583849  28.5568387  53.6261089  32.0454888  28.2430117  53.0382104
  31.2031977  29.4609752  53.3528340  36.1618571  23.4458584  58.0546113
  36.0776759  22.8384253  57.3196523  35.3401277  23.9367602  58.0555609
  46.3342285  21.9312147  53.4216308  46.8310984  21.1782110  53.1017378
  45.5629266  21.9676464  52.8559517  47.4172065  30.6883835  50.9954731
  46.4828344  30.8085297  50.8259435  47.5948734  29.7856301  50.7314741
  42.9177253  24.0729530  53.1487992  42.5475041  23.5200571  53.8368898
  43.4136346  23.4687664  52.5962992  50.8044617  26.5301154  51.5304765
  51.2705069  27.3629145  51.4565068  51.2552117  26.0646135  52.2350024
  48.8720848  32.8744975  48.5290917  49.1480692  32.7601570  49.4384791
  48.0025346  32.4762460  48.4903090  30.9351825  26.6368981  55.8978556
  30.9735924  26.1032571  56.6915674  30.4292117  26.1104186  55.2789533
  38.3142587  21.4833521  59.3941098  38.3783913  22.3448352  58.9818496
  38.2509707  20.8707523  58.6613457  34.5660402  25.3633083  48.9732487
  34.8613843  24.4543761  48.9199541  33.6648438  25.3420822  48.6513490
  38.0954649  23.4389079  54.9560036  37.3741235  24.0525047  54.8167509
  38.8847905  23.9746844  54.8776682  36.2948244  23.0447180  49.0971813
  35.9660950  22.1644559  48.9146919  36.6487614  22.9894849  49.9848202
  39.4090067  23.3320150  49.4647290  39.7486139  23.8606071  48.7425899
  39.8562187  23.6700556  50.2405857  41.3958214  21.8294772  47.6640583
  42.1166577  22.2076025  47.1604300  40.7723518  22.5483649  47.7675561
  45.5389337  22.5339921  48.5998915  45.7552951  23.4164559  48.2987744
  45.0583404  22.1426134  47.8704557  40.2788558  25.4925634  55.1769660
  40.1333139  25.8065937  56.0693942  39.8013762  26.1110534  54.6240559
  42.1384941  22.4828182  55.2250550  42.1246510  21.5869275  54.8882847
  42.8557369  22.4898846  55.8588836  34.7534221  28.0330978  58.1157321
  34.2087689  28.8090786  58.2477595  35.6313570  28.3801783  57.9576443
  41.5421837  21.3642562  50.4938120  41.6637748  20.4359208  50.6929007
  41.2523880  21.3781248  49.5816435  49.9232433  35.3383074  47.1490661
  50.6183338  35.9589766  47.3677975  50.2655583  34.4878425  47.4243039
  51.8223856  32.7882779  48.6777991  52.3475180  33.1270052  47.9527311
  51.7346209  31.8529795  48.4941126  35.9856856  35.0466303  53.0397873
  36.8114876  34.7470075  52.6596516  35.6350908  34.2773926  53.4887661
  34.1865461  32.9652630  53.9986806  33.3497369  32.5374804  53.8170808
  34.1589107  33.1585073  54.9357597  40.5151896  32.9496695  48.5854007
  40.6640017  33.6332159  47.9320680  41.3218340  32.9301785  49.1003463
  38.2704529  28.9761873  49.5915076  38.0250571  28.0724203  49.7895286
  38.4400444  28.9779023  48.6494554  37.5400177  24.7090230  47.0901237
  36.8469422  24.7834585  46.4341273  37.2951929  23.9450574  47.6122754
  44.0147302  35.4444825  46.0565754  43.4421269  36.0635012  45.6036226
  44.5880095  35.9944187  46.5905676  47.2344561  35.7281975  47.1874337
  48.1675235  35.6627537  47.3907212  47.1467774  36.5638242  46.7288869
  49.8632578  35.0447846  44.1478284  49.7846210  34.7107709  45.0414042
  50.6842245  35.5369614  44.1469756  44.3994100  26.7805638  43.3981807
  45.3453205  26.6511846  43.4670225  44.0208345  26.0420300  43.8751235
  42.5837017  24.7055615  43.3336692  41.6768473  24.4088727  43.4099406
  42.8612998  24.4085433  42.4670978  33.5014958  26.0261978  53.7835738
  33.1817742  25.1727286  53.4910112  32.9548386  26.2410556  54.5393706
  44.1999083  19.2492504  49.4880933  43.3899811  18.9039589  49.8636179
  44.8883500  18.9400048  50.0768545  46.1289631  18.3270551  51.1105230
  46.6820670  18.7466004  51.7695253  46.3659718  17.4006299  51.1528186
  41.3535802  21.5642550  43.4748671  42.2154966  21.8897448  43.7344488
  41.5386146  20.7774046  42.9621737  33.3703218  29.6464889  55.7528860
  32.6766689  29.2318842  55.2398814  34.1176209  29.6885426  55.1562279
  49.5068438  20.4371076  50.6183894  48.9267107  21.0955880  50.2361947
  49.2404371  19.6148421  50.2071312  35.2839960  29.5783143  53.6294875
  35.2610648  29.6770830  52.6776758  35.5940597  30.4248294  53.9512041
  48.2893316  22.5971167  49.6740242  47.4019171  22.8820817  49.4560437
  48.7047306  22.4364930  48.8267519  47.4336530  32.3615841  43.7688262
  48.1372380  32.5665844  44.3845918  46.7099179  32.9292603  44.0337346
  48.2634340  28.1125702  49.8890533  48.2069542  28.5694254  49.0498165
  48.8162683  27.3516387  49.7113375  49.3423227  32.7998370  45.8186722
  50.1768831  32.3679569  45.6364197  49.1807570  32.6280384  46.7463617
  48.9969119  29.3030484  47.1843062  48.9417923  29.1374755  46.2431506
  48.3715175  30.0106517  47.3405251  42.3065245  18.8038593  46.7628380
  42.2943915  19.7480433  46.9196651  43.1988667  18.6208738  46.4687841
  50.6775463  39.0983145  43.5319582  49.8004929  38.9771946  43.1681828
  51.1533216  38.3069223  43.2798470  53.4230772  40.0347532  43.3336692
  52.5162227  39.7380645  43.4099406  53.7006753  39.7377350  42.4670978
  52.1929556  36.8934467  43.4748671  53.0548720  37.2189366  43.7344488
  52.3779901  36.1065963  42.9621737  53.1458999  34.1330510  46.7628380
  53.1337669  35.0772350  46.9196651  54.0382421  33.9500656  46.4687841
  30.2447410   0.0051436  37.4434881  30.1671440   0.9559261  37.5223362
  29.6409054  -0.3402691  38.1009808  27.8834240   2.7536830  41.5883083
  28.1230838   3.3855354  42.2662102  27.0403436   2.4024870  41.8748443
  32.4984340   0.8128576  45.5164520  33.0502649   0.9760198  46.2813606
  32.8390534   1.4033014  44.8444545  25.4583814  -1.1450877  41.4856994
  25.3238282  -1.9050476  40.9194992  25.0415876  -0.4209978  41.0185783
  28.6152940  -0.2481560  41.6975436  28.4985324   0.6963872  41.5954127
  27.7945386  -0.5507999  42.0861236  29.6407454   0.4046702  44.9131365
  30.5434700   0.4370312  45.2297860  29.4144824  -0.5252848  44.9277701
  39.7990271   6.8001131  38.5645621  39.2355136   6.7091068  37.7961909
  39.6842666   5.9801035  39.0448114  37.3454703   8.2952323  41.4029842
  38.1375995   7.9543147  40.9876141  37.5851353   8.4047298  42.3231995
  45.3789830  10.4672099  33.8760086  44.7277810  11.0526179  33.4894100
  46.1734193  10.9978294  33.9355124  39.3045457   7.5561236  34.2747221
  40.0776333   7.0090223  34.1360097  39.6570856   8.4205485  34.4861682
  41.1430500   8.8837618  47.4814120  40.8520366   9.7883249  47.3660786
  41.7787484   8.9254146  48.1958190  42.0686706   6.2614467  44.0715480
  42.6650279   6.0370489  43.3572443  42.1261678   5.5199212  44.6740928
  46.8565095   8.1562531  34.4129071  46.2210928   8.2297157  35.1249975
  46.5262501   8.7456129  33.7348150  41.3608024   5.6182008  34.1090046
  41.2444282   4.9426911  34.7771130  41.4710283   5.1314382  33.2922199
  46.1020385   8.5699034  44.4763914  45.8021108   9.4724072  44.3679721
  45.7571444   8.3031217  45.3285067  39.5532866   5.0212830  40.5100618
  38.6283363   4.8889045  40.7178310  39.8017279   5.8007050  41.0070561
  36.9141677   4.6646104  41.3444407  37.0434058   4.9180583  42.2583819
  36.2339128   5.2573812  41.0249062  41.0841164  15.3343354  37.4434881
  41.0065194  16.2851179  37.5223362  40.4802808  14.9889226  38.1009808
  47.6288921   8.0187004  42.0138666  46.9997783   8.1832718  41.3114734
  47.2414583   8.4328613  42.7849630  51.5078153   8.9541442  39.3683029
  50.8229191   9.3340343  38.8180063  51.5922002   9.5636768  40.1014977
  43.1816883   7.7561412  39.2788751  43.6455228   8.0349115  38.4893373
  42.9173681   6.8544857  39.0961841  40.0740964   7.3032893  42.2168514
  40.6442321   7.7320162  41.5785999  40.6649076   7.0215478  42.9152700
  35.8611103   2.1368117  41.3895449  35.0710157   2.3925645  40.9135560
  36.3522350   2.9516455  41.4947490  37.8125848   2.5012696  38.3478926
  37.0157011   2.6131390  38.8662422  37.5851440   2.8399348  37.4819817
  43.6431516   9.0257399  46.2961441  43.7075948   9.4877807  47.1319613
  42.9342440   8.3954764  46.4243751  34.1448806   2.3898607  43.8210440
  34.3956844   3.2745617  44.0868016  34.6808354   2.2103209  43.0485532
  43.3579533  10.6925507  36.1640421  43.2225208  11.5377043  36.5925269
  43.8989346  10.8944785  35.4006355  36.8108931   8.2100945  36.7368346
  37.3233451   9.0044195  36.8873911  37.4631644   7.5127235  36.6701948
  38.6203815  11.3266701  38.8191099  38.7970444  12.2484666  38.6312083
  39.4160649  11.0125120  39.2485479  37.9056172   3.3731333  48.6953263
  37.7909687   2.4716590  48.9960362  37.0500690   3.6195030  48.3438079
  39.7435131  12.8444875  44.8201442  40.2942556  12.7161938  44.0478436
  38.9046607  13.1439764  44.4696335  34.7757848   6.5389599  37.5127917
  35.6133070   6.9486608  37.2961624  34.9536115   5.5989041  37.4828111
  44.9055015   8.2381995  36.6764485  44.3776376   7.5034755  36.3637722
  44.4042517   9.0156672  36.4304453  43.0507615   6.0562206  29.6799458
  42.1434677   5.8251459  29.8790607  43.5478647   5.2599825  29.8673439
  45.9575694  14.7659713  32.5996144  45.2837393  15.0691410  33.2081102
  46.3441516  15.5688793  32.2501601  44.2295848   6.1574800  34.2023448
  43.3207068   5.8733833  34.2995918  44.2590932   6.5773879  33.3426755
  49.4615116   9.7681390  37.9714616  49.0077443   8.9272300  38.0279806
  48.8309082  10.4042788  38.3089396  47.9048055  11.6057887  38.9064434
  48.1971029  12.1662944  38.1876799  48.4146676  11.8986448  39.6617593
  34.7984019   3.8780315  38.1838650  34.6008419   3.2849675  37.4589717
  34.2430683   3.5732525  38.9014589  43.9271936   7.6983544  31.5411527
  43.4891366   6.9819403  31.0817164  44.6682377   7.9259659  30.9796618
  42.8681680  12.3838238  39.9957887  42.8257859  12.6099084  39.0666419
  43.7844379  12.1501612  40.1443688  40.9847481   9.2601267  39.7919850
  41.7788079   8.7651587  39.5902425  40.2739173   8.7319130  39.4287555
  45.8042325  11.6419362  44.1432217  45.8579348  12.2110299  44.9109933
  44.9357107  11.8121247  43.7786254  37.2930244   3.4044348  35.8679602
  36.3627832   3.3428804  36.0849564  37.3887716   2.8820301  35.0716244
  44.7630425   5.8079624  45.7019149  45.6922485   5.9590784  45.5288116
  44.3421455   5.8963645  44.8467796  43.5618757   9.8330289  43.4717687
  43.4229843   9.4649073  44.3443625  42.7733353  10.3477928  43.3001645
  44.1566909  14.9339385  34.8143223  44.3318665  14.4627428  35.6288846
  43.4699697  15.5605151  35.0424484  45.1123972   9.2111891  40.8606525
  44.7773805   9.1712661  41.7564174  44.6127918   8.5456607  40.3876935
  39.0868216   4.6179521  46.3859106  38.9488014   3.8859760  46.9870645
  39.9973140   4.5288422  46.1043293  48.0483164   6.5567926  31.1343584
  47.4312334   5.8314754  31.0376637  47.5799652   7.3177286  30.7910658
  38.7227994  18.0828748  41.5883083  38.9624592  18.7147272  42.2662102
  37.8797191  17.7316788  41.8748443  31.3583850   5.5630510  40.3506396
  32.0454890   5.2492240  39.7627411  31.2031978   6.4671874  40.0773647
  43.2355856  13.8907870  43.9924587  43.1626028  14.6962842  44.5043892
  42.7933249  14.0899836  43.1672609  43.0245636  13.1279640  37.5027409
  42.2413158  13.6701321  37.5965633  43.7238381  13.6453620  37.9021650
  45.6954540  13.7894704  46.1482746  46.4082512  14.4242169  46.0758648
  45.2044568  13.8858570  45.3322748  47.4172066   7.6945957  37.7200038
  46.4828345   7.8147420  37.5504742  47.5948735   6.7918424  37.4560048
  40.7466453  11.5389148  46.9688317  41.4475913  12.1725631  47.1217711
  40.2761568  11.8803879  46.2083956  48.8720849   9.8807098  35.2536224
  49.1480693   9.7663692  36.1630098  48.0025348   9.4824583  35.2148397
  45.5074913  14.1293449  38.8969038  45.6897307  13.3115104  39.3596790
  46.3307899  14.3461141  38.4593928  45.8417078  13.0561634  36.1584086
  46.3704845  12.5454088  35.5454248  46.1045298  12.7404164  37.0229619
  36.3434171  11.0725503  43.9019420  36.9287608  10.3269191  44.0347324
  36.1459010  11.3829460  44.7856083  39.1972826  14.1076750  38.9181862
  38.5283202  14.5922878  38.4345902  39.0585696  14.3545971  39.8325241
  30.9351826   3.6431103  42.6223863  30.9735925   3.1094694  43.4160981
  30.4292119   3.1166309  42.0034840  43.3378095  16.1420494  45.5164520
  43.8896403  16.3052115  46.2813606  43.6784288  16.7324932  44.8444545
  34.5660403   2.3695205  35.6977794  34.8613845   1.4605884  35.6444848
  33.6648439   2.3482945  35.3758796  46.4746482  14.0902469  42.5028203
  46.3497622  13.2892209  41.9939148  47.1325573  14.5848663  42.0142172
  48.5381391  11.8911489  44.1307753  47.5911726  11.7716841  44.0586079
  48.8864164  11.0033988  44.2134014  45.5427824  11.6864206  40.3312105
  45.3952786  10.7580913  40.5119675  46.3681317  11.7084296  39.8469180
  49.1461946  12.5092764  41.4176978  50.0708493  12.3035626  41.2801429
  48.9777249  12.2609166  42.3266319  48.9357262  13.0278432  36.7739069
  49.1094140  12.4624854  36.0212921  49.4286153  13.8279327  36.5918559
  34.7534222   5.0393101  44.8402628  34.2087690   5.8152909  44.9722902
  35.6313572   5.3863905  44.6821749  49.9232434  12.3445196  33.8735967
  50.6183339  12.9651889  34.0923282  50.2655585  11.4940547  34.1488345
  35.5400244   4.1662997  47.7332785  34.7981980   4.3145633  48.3197415
  35.2192988   4.4271263  46.8699534  51.8223858   9.7944902  35.4023298
  52.3475182  10.1332175  34.6772618  51.7346210   8.8591917  35.2186433
  43.4843906  13.7078975  47.5313175  43.7931033  13.4628122  48.4035874
  44.2819388  13.9125614  47.0432045  43.5064518  15.8616885  39.7618551
  43.0669509  15.3693264  40.4551408  44.2572635  15.3189853  39.5210626
  35.9856857  12.0528426  39.7643179  36.8114877  11.7532198  39.3841823
  35.6350909  11.2836048  40.2132968  40.9538390  11.4054894  41.8340853
  40.3318400  10.7425599  41.5343081  41.6243257  11.4316026  41.1514501
  34.1865462   9.9714752  40.7232113  33.3497371   9.5436927  40.5416114
  34.1589108  10.1647196  41.6602904  40.5151897   9.9558818  35.3099313
  40.6640018  10.6394282  34.6565986  41.3218341   9.9363908  35.8248769
  38.2704530   5.9823995  36.3160382  38.0250572   5.0786325  36.5140593
  38.4400445   5.9841146  35.3739860  44.0147303  12.4506948  32.7811061
  43.4421270  13.0697135  32.3281533  44.5880097  13.0006310  33.3150983
  47.2344563  12.7344098  33.9119643  48.1675236  12.6689660  34.1152519
  47.1467776  13.5700365  33.4534176  49.8632579  12.0509968  30.8723591
  49.7846211  11.7169832  31.7659349  50.6842246  12.5431736  30.8715063
  33.5014959   3.0324101  40.5081045  33.1817743   2.1789409  40.2155419
  32.9548387   3.2472679  41.2639012  37.2794867   5.7486542  44.2250552
  37.4980876   6.6803649  44.2438585  37.6920640   5.3894516  45.0105355
  33.3703219   6.6527012  42.4774167  32.6766690   6.2380965  41.9644121
  34.1176210   6.6947549  41.8807585  35.2839961   6.5845266  40.3540181
  35.2610650   6.6832953  39.4022065  35.5940598   7.4310417  40.6757348
  37.9427339   8.6421421  44.4686796  38.8970593   8.6105363  44.4016727
  37.7439863   8.1812045  45.2837022  38.5326721   7.2122537  47.0357594
  39.3519610   7.7066616  47.0592431  38.8063529   6.2954505  47.0075161
  36.2977568  14.1841040  41.4856994  36.1632036  13.4241441  40.9194992
  35.8809630  14.9081940  41.0185783  47.4336531   9.3677964  30.4933569
  48.1372381   9.5727966  31.1091225  46.7099180   9.9354726  30.7582653
  39.4546694  15.0810357  41.6975436  39.3379078  16.0255790  41.5954127
  38.6339140  14.7783919  42.0861236  49.3423229   9.8060493  32.5432029
  50.1768832   9.3741692  32.3609504  49.1807571   9.6342507  33.4708924
  40.4801208  15.7338619  44.9131365  41.3828455  15.7662229  45.2297860
  40.2538578  14.8039070  44.9277701  42.2354810  14.4869606  41.5741443
  41.2850441  14.4871467  41.4605816  42.5387296  13.7402340  41.0577478
  50.6384026  22.1293049  38.5645621  50.0748891  22.0382986  37.7961909
  50.5236421  21.3092953  39.0448114  48.1848458  23.6244240  41.4029842
  48.9769749  23.2835065  40.9876141  48.4245108  23.7339215  42.3231995
  50.1439211  22.8853154  34.2747221  50.9170087  22.3382141  34.1360097
  50.4964610  23.7497403  34.4861682  51.9824254  24.2129536  47.4814120
  51.6914120  25.1175167  47.3660786  52.6181238  24.2546063  48.1958190
  52.9080461  21.5906384  44.0715480  53.5044033  21.3662407  43.3572443
  52.9655432  20.8491130  44.6740928  52.4805489  19.0445820  31.9065671
  52.7331010  18.5227341  31.1449134  51.5430048  18.8811965  32.0092354
  52.2001778  20.9473926  34.1090046  52.0838036  20.2718829  34.7771130
  52.3104038  20.4606300  33.2922199  54.5433319  20.4084073  37.8136735
  54.1791526  19.8814694  38.5249656  55.4000435  20.0182542  37.6403220
  54.1838806  15.4373972  32.8098083  54.3513208  16.3054209  33.1768554
  53.9935975  15.6001254  31.8859373  50.3926621  20.3504748  40.5100618
  49.4677117  20.2180962  40.7178310  50.6411034  21.1298967  41.0070561
  54.1628027  17.8931630  33.7944750  54.0427652  18.3388681  34.6330230
  53.4680615  18.2416948  33.2358288  47.7535432  19.9938022  41.3444407
  47.8827813  20.2472501  42.2583819  47.0732883  20.5865730  41.0249062
  51.9234919  30.6635272  37.4434881  51.8458949  31.6143097  37.5223362
  51.3196563  30.3181144  38.1009808  54.0210637  23.0853330  39.2788751
  54.4848983  23.3641033  38.4893373  53.7567435  22.1836774  39.0961841
  50.9134718  22.6324811  42.2168514  51.4836075  23.0612080  41.5785999
  51.5042830  22.3507396  42.9152700  52.9579523  19.2076482  36.0878316
  53.6603567  19.6597526  36.5552242  52.6260152  18.5660301  36.7158209
  46.7004857  17.4660035  41.3895449  45.9103911  17.7217563  40.9135560
  47.1916105  18.2808372  41.4947490  48.6519603  17.8304614  38.3478926
  47.8550766  17.9423308  38.8662422  48.4245195  18.1691266  37.4819817
  54.4825270  24.3549317  46.2961441  54.5469703  24.8169724  47.1319613
  53.7736194  23.7246682  46.4243751  44.9842560  17.7190525  43.8210440
  45.2350599  18.6037535  44.0868016  45.5202109  17.5395127  43.0485532
  54.1973288  26.0217425  36.1640421  54.0618963  26.8668960  36.5925269
  54.7383100  26.2236702  35.4006355  47.6502685  23.5392863  36.7368346
  48.1627206  24.3336113  36.8873911  48.3025398  22.8419153  36.6701948
  49.4597570  26.6558619  38.8191099  49.6364198  27.5776584  38.6312083
  50.2554403  26.3417038  39.2485479  48.7449927  18.7023251  48.6953263
  48.6303442  17.8008508  48.9960362  47.8894444  18.9486948  48.3438079
  50.5828885  28.1736793  44.8201442  51.1336311  28.0453856  44.0478436
  49.7440361  28.4731682  44.4696335  45.6151602  21.8681517  37.5127917
  46.4526824  22.2778525  37.2961624  45.7929870  20.9280959  37.4828111
  55.0963145  14.3806298  38.2596988  54.2404742  13.9913149  38.0802627
  55.5090097  14.4598259  37.3996774  52.8705178  11.9991371  41.6654730
  53.7358174  11.8034180  41.3060619  52.9382687  11.7701723  42.5924086
  50.4767497  14.2293579  39.0371096  51.0511249  14.0068761  38.3044289
  51.0638479  14.2982274  39.7899698  50.8037084  16.2598040  33.0566982
  49.9674396  16.5972727  33.3776256  50.6641854  16.1247020  32.1194119
  52.7790164  11.1034828  37.7646166  52.1254577  10.7883845  37.1402781
  52.7370639  10.4810569  38.4905989  53.8901369  21.3854123  29.6799458
  52.9828431  21.1543377  29.8790607  54.3872401  20.5891743  29.8673439
  55.0689603  21.4866718  34.2023448  54.1600822  21.2025751  34.2995918
  55.0984687  21.9065797  33.3426755  45.6377773  19.2072232  38.1838650
  45.4402173  18.6141593  37.4589717  45.0824437  18.9024442  38.9014589
  53.6174497  19.0995339  40.3033243  53.6723107  18.1469175  40.2275720
  52.8065699  19.2554778  40.7874542  54.7665691  23.0275462  31.5411527
  54.3285121  22.3111321  31.0817164  55.5076131  23.2551577  30.9796618
  51.5566857  17.7172398  38.0623622  50.7434722  18.0166569  38.4688814
  52.0525851  17.3228087  38.7798104  53.7075435  27.7130155  39.9957887
  53.6651613  27.9391002  39.0666419  54.6238134  27.4793530  40.1443688
  51.0480932  15.2890754  43.6784857  51.6880311  15.1479513  42.9807821
  50.2158462  15.0025267  43.3023459  51.8241235  24.5893184  39.7919850
  52.6181834  24.0943505  39.5902425  51.1132928  24.0611048  39.4287555
  48.1323999  18.7336266  35.8679602  47.2021587  18.6720722  36.0849564
  48.2281471  18.2112219  35.0716244  48.0509548  15.2591079  38.4557844
  48.3116365  16.1736412  38.3467004  48.8726720  14.7915522  38.6054457
  49.5234473  16.6728836  45.6256669  50.1957527  16.4646198  44.9769317
  48.6964260  16.4750922  45.1861901  54.4012511  25.1622206  43.4717687
  54.2623597  24.7940991  44.3443625  53.6127108  25.6769846  43.3001645
  54.9960663  30.2631303  34.8143223  55.1712419  29.7919346  35.6288846
  54.3093451  30.8897069  35.0424484  49.9261971  19.9471439  46.3859106
  49.7881768  19.2151678  46.9870645  50.8366894  19.8580339  46.1043293
  52.5544271  19.6591398  45.8742785  53.2643890  19.0184591  45.8329404
  52.5113579  19.9104293  46.7968966  49.5621749  33.4120666  41.5883083
  49.8018347  34.0439190  42.2662102  48.7190945  33.0608706  41.8748443
  50.6775464  16.1045268  30.2564888  49.8004930  15.9834069  29.8927135
  51.1533217  15.3131346  30.0043777  42.1977604  20.8922427  40.3506396
  42.8848644  20.5784158  39.7627411  42.0425733  21.7963792  40.0773647
  47.0012326  15.7812624  44.7791419  46.9170515  15.1738294  44.0441829
  46.1795033  16.2721642  44.7800916  54.0749611  29.2199788  43.9924587
  54.0019782  30.0254760  44.5043892  53.6327004  29.4191754  43.1672609
  53.8639390  28.4571558  37.5027409  53.0806912  28.9993238  37.5965633
  54.5632135  28.9745538  37.9021650  53.7571009  16.4083571  39.8733299
  53.3868797  15.8554611  40.5614205  54.2530101  15.8041704  39.3208299
  51.5860208  26.8681066  46.9688317  52.2869667  27.5017549  47.1217711
  51.1155323  27.2095797  46.2083956  47.1827926  26.4017421  43.9019420
  47.7681362  25.6561109  44.0347324  46.9852764  26.7121377  44.7856083
  50.0366581  29.4368668  38.9181862  49.3676956  29.9214796  38.4345902
  49.8979451  29.6837888  39.8325241  41.7745580  18.9723021  42.6223863
  41.8129680  18.4386612  43.4160981  41.2685873  18.4458226  42.0034840
  54.1771849  31.4712412  45.5164520  54.7290157  31.6344033  46.2813606
  54.5178043  32.0616849  44.8444545  49.1536343  13.8187561  46.1186405
  49.2177669  14.6802392  45.7063803  49.0903463  13.2061563  45.3858764
  45.4054158  17.6987123  35.6977794  45.7007599  16.7897801  35.6444848
  44.5042194  17.6774862  35.3758796  48.9348405  15.7743120  41.6805343
  48.2134991  16.3879087  41.5412816  49.7241661  16.3100884  41.6021989
  47.1342000  15.3801221  35.8217119  46.8054706  14.4998600  35.6392225
  47.4881370  15.3248889  36.7093509  50.2483823  15.6674190  36.1892597
  50.5879895  16.1960112  35.4671205  50.6955943  16.0054597  36.9651163
  52.2351970  14.1648812  34.3885890  52.9560332  14.5430065  33.8849607
  51.6117274  14.8837689  34.4920868  51.1182314  17.8279674  41.9014967
  50.9726895  18.1419977  42.7939248  50.6407518  18.4464575  41.3485865
  52.9778697  14.8182222  41.9495856  52.9640266  13.9223316  41.6128154
  53.6951125  14.8252886  42.5834142  45.5927976  20.3685019  44.8402628
  45.0481444  21.1444827  44.9722902  46.4707326  20.7155823  44.6821749
  52.3815593  13.6996602  37.2183426  52.5031504  12.7713249  37.4174314
  52.0917635  13.7135288  36.3061742  46.3793998  19.4954915  47.7332785
  45.6375734  19.6437550  48.3197415  46.0586742  19.7563181  46.8699534
  54.3237661  29.0370893  47.5313175  54.6324787  28.7920040  48.4035874
  55.1213143  29.2417532  47.0432045  54.3458273  31.1908803  39.7618551
  53.9063263  30.6985181  40.4551408  55.0966390  30.6481770  39.5210626
  46.8250612  27.3820344  39.7643179  47.6508632  27.0824115  39.3841823
  46.4744664  26.6127966  40.2132968  51.7932145  26.7346812  41.8340853
  51.1712154  26.0717517  41.5343081  52.4637012  26.7607944  41.1514501
  45.0259217  25.3006670  40.7232113  44.1891125  24.8728844  40.5416114
  44.9982862  25.4939113  41.6602904  51.3545652  25.2850735  35.3099313
  51.5033772  25.9686200  34.6565986  52.1612095  25.2655825  35.8248769
  49.1098285  21.3115913  36.3160382  48.8644327  20.4078243  36.5140593
  49.2794199  21.3133063  35.3739860  48.3793932  17.0444270  33.8146544
  47.6863177  17.1188625  33.1586580  48.1345684  16.2804614  34.3368061
  54.8541057  27.7798866  32.7811061  54.2815024  28.3989053  32.3281533
  55.4273851  28.3298227  33.3150983  53.4230773  17.0409655  30.0581999
  52.5162228  16.7442767  30.1344712  53.7006754  16.7439473  29.1916285
  44.3408713  18.3616018  40.5081045  44.0211498  17.5081326  40.2155419
  43.7942142  18.5764596  41.2639012  48.1188621  21.0778459  44.2250552
  48.3374631  22.0095567  44.2438585  48.5314395  20.7186434  45.0105355
  52.1929558  13.8996590  30.1993978  53.0548722  14.2251488  30.4589795
  52.3779902  13.1128086  29.6867044  44.2096973  21.9818930  42.4774167
  43.5160445  21.5672882  41.9644121  44.9569964  22.0239466  41.8807585
  46.1233716  21.9137183  40.3540181  46.1004404  22.0124871  39.4022065
  46.4334352  22.7602334  40.6757348  48.7821094  23.9713338  44.4686796
  49.7364347  23.9397281  44.4016727  48.5833617  23.5103962  45.2837022
  49.3720476  22.5414455  47.0357594  50.1913365  23.0358533  47.0592431
  49.6457284  21.6246423  47.0075161  47.1371323  29.5132958  41.4856994
  47.0025791  28.7533359  40.9194992  46.7203385  30.2373858  41.0185783
  50.2940449  30.4102275  41.6975436  50.1772833  31.3547707  41.5954127
  49.4732895  30.1075837  42.0861236  44.6255390  16.8752588  47.7349791
  45.2714254  16.3651542  48.2237016  44.4172541  17.6121270  48.3093216
  53.1459001  11.1392633  33.4873687  53.1337671  12.0834473  33.6441958
  54.0382423  10.9562778  33.1933148  51.3194963  31.0630537  44.9131365
  52.2222209  31.0954147  45.2297860  51.0932333  30.1330988  44.9277701
  53.0748565  29.8161523  41.5741443  52.1244196  29.8163385  41.4605816
  53.3781051  29.0694258  41.0577478  53.0371359  36.2214345  40.3506396
  53.7242399  35.9076075  39.7627411  52.8819487  37.1255710  40.0773647
  52.6139335  34.3014939  42.6223863  52.6523434  33.7678529  43.4160981
  52.1079628  33.7750144  42.0034840  55.1802468  33.6907936  40.5081045
  54.8605252  32.8373244  40.2155419  54.6335896  33.9056514  41.2639012
  51.9234920   7.6697394  24.1680188  51.8458950   8.6205219  24.2468669
  51.3196564   7.3243267  24.8255114  49.5621750  10.4182788  28.3128390
  49.8018348  11.0501312  28.9907409  48.7190946  10.0670828  28.5993749
  54.1771851   8.4774534  32.2409827  54.7290159   8.6406156  33.0058912
  54.5178044   9.0678972  31.5689852  47.1371324   6.5195081  28.2102300
  47.0025792   5.7595481  27.6440298  46.7203386   7.2435980  27.7431089
  50.2940450   7.4164398  28.4220743  50.1772834   8.3609830  28.3199433
  49.4732896   7.1137959  28.8106542  51.3194964   8.0692659  31.6376671
  52.2222211   8.1016270  31.9543166  51.0932334   7.1393110  31.6523007
  53.0371360  13.2276468  27.0751702  53.7242400  12.9138198  26.4872718
  52.8819489  14.1317832  26.8018954  52.6139336  11.3077061  29.3469169
  52.6523436  10.7740652  30.1406287  52.1079629  10.7812267  28.7280147
  55.1802469  10.6970058  27.2326352  54.8605254   9.8435367  26.9400726
  54.6335897  10.9118637  27.9884319   2.6000675  22.4305673  45.8750834
   1.9262373  22.7337369  46.4835792   2.9866496  23.2334753  45.5256291
   6.5657415  20.0091156  47.1490658   7.2608320  20.6297849  47.3677972
   6.9080565  19.1586507  47.4243035   3.8769543  20.3990058  47.1874333
   4.8100217  20.3335619  47.3907209   3.7892756  21.2346325  46.7288866
   6.5057560  19.7155928  44.1478281   6.4271192  19.3815792  45.0414039
   7.3267227  20.2077696  44.1469753   4.0761512  17.0323924  43.7688259
   4.7797362  17.2373926  44.3845915   3.3524161  17.6000685  44.0337343
  14.6132484  27.9876104  55.9141896  15.2510894  27.8682851  55.2105236
  14.4953327  28.9356948  55.9729848   7.2809006  29.7939008  51.8400312
   6.7173872  29.7028945  51.0716600   7.1661401  28.9738913  52.3202804
  12.8608565  33.4609976  47.1514777  12.2096545  34.0464057  46.7648790
  13.6552928  33.9916171  47.2109814   6.7864192  30.5499113  47.5501911
   7.5595068  30.0028100  47.4114787   7.1389591  31.4143363  47.7616372
   9.1230470  26.7091779  45.1820361   9.3755991  26.1873301  44.4203824
   8.1855029  26.5457925  45.2847045  14.1673753  25.7127558  52.9895104
  14.9536842  25.2946981  52.6385521  14.4312457  26.6173650  53.1576753
  14.3383830  31.1500408  47.6883761  13.7029663  31.2235035  48.4004666
  14.0081237  31.7394007  47.0102840  19.5682180  25.6502791  53.8928083
  20.3007352  25.0802008  54.1265912  18.8121536  25.2624391  54.3334588
   8.8426759  28.6119885  47.3844736   8.7263017  27.9364789  48.0525820
   8.9529019  28.1252259  46.5676889  11.1858300  28.0730032  51.0891425
  10.8216507  27.5460653  51.8004347  12.0425416  27.6828501  50.9157911
  10.8263787  23.1019932  46.0852774  10.9938189  23.9700169  46.4523245
  10.6360956  23.2647214  45.1614063  10.8053008  25.5577590  47.0699440
  10.6852633  26.0034640  47.9084921  10.1105596  25.9062907  46.5112979
  16.5038074  26.0299063  47.8979775  17.4155930  26.2626450  47.7227472
  15.9947721  26.6136107  47.3354853  15.1107656  31.0124881  55.2893356
  14.4816519  31.1770595  54.5869424  14.7233318  31.4266491  56.0604320
  18.9896888  31.9479319  52.6437720  18.3047926  32.3278220  52.0934753
  19.0740737  32.5574646  53.3769667  10.6635618  30.7499289  52.5543441
  11.1273964  31.0286992  51.7648064  10.3992416  29.8482734  52.3716532
   9.6004504  26.8722442  49.3633006  10.3028547  27.3243485  49.8306933
   9.2685133  26.2306261  49.9912899  17.3593648  32.4711234  57.4155421
  18.1811091  32.0691421  57.1338102  17.3556050  32.3679468  58.3671536
  25.4499641  28.8149982  53.7640392  24.6963349  28.2457380  53.6084397
  25.5847182  28.7812647  54.7111027  10.8398269  33.6863384  49.4395111
  10.7043943  34.5314920  49.8679959  11.3808081  33.8882662  48.6761045
   4.2927666  31.2038822  50.0123037   4.8052187  31.9982073  50.1628601
   4.9450379  30.5065113  49.9456638   2.2576583  29.5327477  50.7882607
   3.0951805  29.9424485  50.5716315   2.4354851  28.5926919  50.7582801
  14.1541015  27.2002557  46.4766440  13.6387638  27.9707162  46.7154827
  13.8818323  26.5267693  47.0999501  19.1275289  29.9534912  48.4119613
  18.3504732  29.6146071  47.9674776  19.8066770  29.9587535  47.7374579
  13.9427318  25.0729649  48.3026221  13.6377454  25.3875799  49.1536364
  14.8957760  25.1511069  48.3453554  12.3873750  31.2319873  49.9519175
  11.8595112  30.4972632  49.6392413  11.8861253  32.0094549  49.7059144
  17.3666596  29.4268893  55.0686221  16.7090270  30.1168155  55.1566350
  18.1706995  29.8165325  55.4120208  16.1772055  27.7813266  53.1190163
  16.6903937  28.4143258  53.6211873  16.8273279  27.1814461  52.7533523
   7.4462065  23.9244000  46.3321672   6.6099377  24.2618687  46.6530947
   7.3066834  23.7892980  45.3948809  10.5326350  29.0500083  42.9554148
   9.6253412  28.8189336  43.1545297  11.0297382  28.2537702  43.1428130
  13.4394429  37.7597590  45.8750834  12.7656128  38.0629287  46.4835792
  13.8260251  38.5626671  45.5256291  13.4387933  26.6554137  50.4951184
  14.1859752  27.1675534  50.1858306  13.7079523  26.3338190  51.3555578
  11.7114584  29.1512678  47.4778138  10.8025803  28.8671711  47.5750608
  11.7409667  29.5711756  46.6181445  16.9433851  32.7619267  51.2469306
  16.4896178  31.9210177  51.3034496  16.3127818  33.3980666  51.5844086
  15.8866771  23.6911253  52.4769973  15.1489527  23.1788640  52.8080216
  16.1393544  23.2511635  51.6653250  15.3866790  34.5995764  52.1819124
  15.6789765  35.1600821  51.4631490  15.8965411  34.8924325  52.9372283
  11.4090671  30.6921422  44.8166217  10.9710101  29.9757280  44.3571854
  12.1501112  30.9197536  44.2551308   8.1991838  25.3818358  51.3378313
   7.3859703  25.6812529  51.7443505   8.6950832  24.9874047  52.0552795
  10.3500415  35.3776115  53.2712577  10.3076594  35.6036961  52.3421109
  11.2663114  35.1439490  53.4198378  19.5263786  28.9678619  50.8742535
  19.3881685  29.1580215  49.9463725  19.1700005  29.7298001  51.3310587
  19.5533166  31.0355146  55.8853807  19.9869672  30.9430435  56.7336861
  20.2664746  31.0112646  55.2473823   8.4666216  32.2539144  53.0674540
   9.2606815  31.7589464  52.8657115   7.7557909  31.7257007  52.7042245
   4.7748980  26.3982226  49.1434293   3.8446568  26.3366681  49.3604255
   4.8706452  25.8758179  48.3470934  20.4148715  31.0778846  58.4186692
  20.6084605  31.9824657  58.6645967  20.3149333  30.6186265  59.2525277
  11.6385644  37.9277263  48.0897914  11.8137400  37.4565306  48.9043536
  10.9518432  38.5543029  48.3179174  12.5942707  32.2049769  54.1361215
  12.2592540  32.1650539  55.0318865  12.0946653  31.5394485  53.6631625
  15.5301899  29.5505803  44.4098274  14.9131070  28.8252631  44.3131327
  15.0618387  30.3115163  44.0665349   7.3200445  23.7691227  43.5319579
   6.4429911  23.6480028  43.1681825   7.7958198  22.9777306  43.2798467
  10.5064371  36.1217518  50.7782099   9.7231893  36.6639198  50.8720324
  11.2057116  36.6391497  51.1776340  21.6690778  27.6352513  55.0634596
  21.6580655  28.5177228  54.6928529  20.8008158  27.2824064  54.8689133
  14.8990802  30.6883835  50.9954728  13.9647080  30.8085297  50.8259432
  15.0767470  29.7856301  50.7314738  18.2863353  26.5301154  51.5304762
  18.7523805  27.3629145  51.4565065  18.7370854  26.0646135  52.2350021
  16.3539584  32.8744975  48.5290914  16.6299428  32.7601570  49.4384788
  15.4844083  32.4762460  48.4903087  12.9893648  37.1231326  52.1723728
  13.1716043  36.3052982  52.6351480  13.8126634  37.3399018  51.7348618
  13.3235814  36.0499511  49.4338776  13.8523580  35.5391966  48.8208938
  13.5864033  35.7342041  50.2984309   2.0479139  25.3633083  48.9732484
   2.3432580  24.4543761  48.9199538   1.1467175  25.3420822  48.6513487
  13.9565218  37.0840347  55.7782893  13.8316357  36.2830087  55.2693838
  14.6144309  37.5786540  55.2896863  16.0200126  34.8849367  57.4062443
  15.0730461  34.7654718  57.3340770  16.3682899  33.9971865  57.4888704
  13.0246559  34.6802083  53.6066795  12.8771522  33.7518791  53.7874365
  13.8500053  34.7022174  53.1223870   6.8908803  23.3320150  49.4647287
   7.2304876  23.8606071  48.7425896   7.3380924  23.6700556  50.2405854
  16.6280681  35.5030642  54.6931668  17.5527229  35.2973503  54.5556119
  16.4595984  35.2547043  55.6021009   8.8776951  21.8294772  47.6640580
   9.5985313  22.2076025  47.1604297   8.2542255  22.5483649  47.7675558
  13.0208074  22.5339921  48.5998912  13.2371688  23.4164559  48.2987740
  12.5402141  22.1426134  47.8704554  16.4175997  36.0216309  50.0493759
  16.5912875  35.4562732  49.2967612  16.9104888  36.8217204  49.8673249
  22.2715388  28.7852732  51.6684059  22.7146534  28.0360057  51.2703182
  21.3941899  28.7762869  51.2857791  17.4051170  35.3383074  47.1490658
  18.1002074  35.9589766  47.3677972  17.7474320  34.4878425  47.4243035
  19.3042593  32.7882779  48.6777988  19.8293917  33.1270052  47.9527308
  19.2164945  31.8529795  48.4941123   7.9970633  32.9496695  48.5854004
   8.1458753  33.6332159  47.9320676   8.8037076  32.9301785  49.1003459
  21.8148253  30.2557971  54.0606507  22.6495145  30.6947775  54.2244067
  21.9507382  29.7796624  53.2414752   5.7523266  28.9761873  49.5915073
   5.5069308  28.0724203  49.7895283   5.9219180  28.9779023  48.6494551
   5.0218913  24.7090230  47.0901234   4.3288158  24.7834585  46.4341270
   4.7770665  23.9450574  47.6122751  11.4966038  35.4444825  46.0565751
  10.9240005  36.0635012  45.6036223  12.0698832  35.9944187  46.5905673
  14.7163298  35.7281975  47.1874333  15.6493971  35.6627537  47.3907209
  14.6286511  36.5638242  46.7288866  17.3451315  35.0447846  44.1478281
  17.2664946  34.7107709  45.0414039  18.1660981  35.5369614  44.1469753
  20.0429506  27.9109585  57.3554600  20.0105826  26.9725586  57.5414283
  20.6530129  27.9893622  56.6220424  11.8812837  26.7805638  43.3981804
  12.8271941  26.6511846  43.4670222  11.5027082  26.0420300  43.8751232
  25.8606056  28.9725592  56.4960636  26.5909444  28.7110880  57.0568340
  25.2513001  28.2354314  56.5362704  23.9421353  27.1133455  57.0935088
  23.2154516  26.9789420  56.4851579  23.5268640  27.4210283  57.8991806
  10.0655754  24.7055615  43.3336689   9.1587209  24.4088727  43.4099402
  10.3431735  24.4085433  42.4670975   8.8354538  21.5642550  43.4748668
   9.6973702  21.8897448  43.7344485   9.0204883  20.7774046  42.9621734
  16.9887175  20.4371076  50.6183891  16.4085844  21.0955880  50.2361943
  16.7223108  19.6148421  50.2071309  15.7712053  22.5971167  49.6740239
  14.8837908  22.8820817  49.4560434  16.1866042  22.4364930  48.8267516
  19.1226589  22.6217688  53.3894579  19.8986979  23.1114140  53.6619195
  18.3974723  23.0475742  53.8466448  21.5599148  23.3345307  54.4468519
  22.1543639  23.0941043  53.7361827  21.6325731  22.6152437  55.0742055
  14.9155266  32.3615841  43.7688259  15.6191117  32.5665844  44.3845915
  14.1917915  32.9292603  44.0337343  15.7453077  28.1125702  49.8890529
  15.6888278  28.5694254  49.0498162  16.2981419  27.3516387  49.7113372
  19.5557883  23.9015434  50.7140649  19.2994817  23.5012070  51.5448857
  18.9310751  24.6159228  50.5890788  23.8670220  26.6411508  53.2211940
  23.3069778  26.7104697  53.9943502  23.2613724  26.4652492  52.5011437
  16.8241964  32.7998370  45.8186719  17.6587568  32.3679569  45.6364194
  16.6626307  32.6280384  46.7463614  16.4787856  29.3030484  47.1843059
  16.4236660  29.1374755  46.2431503  15.8533911  30.0106517  47.3405248
   9.7883981  18.8038593  46.7628377   9.7762651  19.7480433  46.9196648
  10.6807403  18.6208738  46.4687838  18.1202761  45.1230926  51.8400312
  17.5567626  45.0320863  51.0716600  18.0055156  44.3030831  52.3202804
  23.7002320  48.7901894  47.1514777  23.0490299  49.3755974  46.7648790
  24.4946682  49.3208089  47.2109814  17.6257947  45.8791031  47.5501911
  18.3988823  45.3320018  47.4114787  17.9783346  46.7435280  47.7616372
  19.9624225  42.0383697  45.1820361  20.2149745  41.5165218  44.4203824
  19.0248784  41.8749842  45.2847045  25.0067507  41.0419475  52.9895104
  25.7930597  40.6238899  52.6385521  25.2706212  41.9465568  53.1576753
  25.1777585  46.4792326  47.6883761  24.5423418  46.5526952  48.4004666
  24.8474991  47.0685925  47.0102840  19.6820513  43.9411803  47.3844736
  19.5656771  43.2656706  48.0525820  19.7922773  43.4544177  46.5676889
  22.0252054  43.4021950  51.0891425  21.6610261  42.8752571  51.8004347
  22.8819170  43.0120419  50.9157911  21.6657541  38.4311850  46.0852774
  21.8331944  39.2992086  46.4523245  21.4754710  38.5939131  45.1614063
  17.8745356  43.3442626  53.7855308  16.9495852  43.2118840  53.9933000
  18.1229769  44.1236845  54.2825251  21.6446762  40.8869507  47.0699440
  21.5246387  41.3326558  47.9084921  20.9499350  41.2354825  46.5112979
  27.3431828  41.3590980  47.8979775  28.2549684  41.5918367  47.7227472
  26.8341475  41.9428025  47.3354853  24.6867803  37.5349016  56.1469635
  23.8252282  37.8330270  56.4386373  24.7130238  37.7519415  55.2150668
  21.5029372  46.0791207  52.5543441  21.9667718  46.3578910  51.7648064
  21.2386171  45.1774652  52.3716532  20.4398259  42.2014359  49.3633006
  21.1422302  42.6535403  49.8306933  20.1078887  41.5598178  49.9912899
  16.1338338  40.8242491  51.6233616  15.3369501  40.9361186  52.1417112
  15.9063930  41.1629144  50.7574507  21.6792023  49.0155302  49.4395111
  21.5437698  49.8606838  49.8679959  22.2201836  49.2174580  48.6761045
  15.1321421  46.5330740  50.0123037  15.6445941  47.3273990  50.1628601
  15.7844133  45.8357030  49.9456638  25.0284487  32.5385864  57.9694005
  24.6848756  33.4287506  57.8933115  25.3963449  32.3487522  57.1063590
  13.0970337  44.8619394  50.7882607  13.9345559  45.2716403  50.5716315
  13.2748605  43.9218836  50.7582801  24.9934769  42.5294475  46.4766440
  24.4781393  43.2999080  46.7154827  24.7212078  41.8559611  47.0999501
  22.5781880  37.3744176  51.5351678  21.7223477  36.9851026  51.3557317
  22.9908832  37.4536137  50.6751464  24.1081027  34.9090519  55.9343238
  23.6045823  34.8720654  55.1211043  24.4011634  35.8183262  55.9939895
  20.3523913  34.9929249  54.9409420  21.2176910  34.7972057  54.5815309
  20.4201422  34.7639601  55.8678777  29.9669044  45.2826830  48.4119613
  29.1898486  44.9437989  47.9674776  30.6460525  45.2879453  47.7374579
  24.7821073  40.4021567  48.3026221  24.4771208  40.7167716  49.1536364
  25.7351515  40.4802987  48.3453554  23.2267504  46.5611790  49.9519175
  22.6988866  45.8264550  49.6392413  22.7255007  47.3386467  49.7059144
  17.9586232  37.2231457  52.3125787  18.5329984  37.0006638  51.5798980
  18.5457214  37.2920151  53.0654388  18.2855819  39.2535918  46.3321672
  17.4493131  39.5910604  46.6530947  18.1460589  39.1184898  45.3948809
  20.2608900  34.0972706  51.0400856  19.6073312  33.7821723  50.4157471
  20.2189374  33.4748446  51.7660679  21.3720105  44.3792001  42.9554148
  20.4647166  44.1481254  43.1545297  21.8691137  43.5829620  43.1428130
  24.2788184  53.0889508  45.8750834  23.6049882  53.3921205  46.4835792
  24.6654005  53.8918588  45.5256291  23.4946640  40.5854639  55.3648504
  22.5769202  40.8069586  55.2070192  23.9106784  40.6600950  54.5060211
  24.2781688  41.9846055  50.4951184  25.0253507  42.4967452  50.1858306
  24.5473277  41.6630108  51.3555578  22.5508338  44.4804596  47.4778138
  21.6419557  44.1963628  47.5750608  22.5803422  44.9003674  46.6181445
  26.7260525  39.0203171  52.4769973  25.9883282  38.5080557  52.8080216
  26.9787299  38.5803553  51.6653250  26.8272152  31.7979423  53.0711743
  27.1331029  30.9376786  52.7837658  27.5524757  32.3897043  52.8710736
  13.1196508  42.2010110  51.4593340  12.9220908  41.6079470  50.7344407
  12.5643172  41.8962320  52.1769279  21.0993232  42.0933216  53.5787934
  21.1541842  41.1407053  53.5030410  20.2884434  42.2492655  54.0629232
  22.2484426  46.0213339  44.8166217  21.8103856  45.3049198  44.3571854
  22.9894867  46.2489454  44.2551308  19.0385592  40.7110276  51.3378313
  18.2253458  41.0104446  51.7443505  19.5344586  40.3165965  52.0552795
  18.5299667  38.2828631  56.9539547  19.1699046  38.1417390  56.2562511
  17.6977197  37.9963145  56.5778149  19.3059971  47.5831062  53.0674540
  20.1000569  47.0881382  52.8657115  18.5951663  47.0548925  52.7042245
  15.6142734  41.7274144  49.1434293  14.6840322  41.6658599  49.3604255
  15.7100206  41.2050096  48.3470934  15.5328283  38.2528956  51.7312534
  15.7935101  39.1674290  51.6221695  16.3545456  37.7853399  51.8809147
  22.4779399  53.2569180  48.0897914  22.6531154  52.7857223  48.9043536
  21.7912187  53.8834946  48.3179174  26.3695653  44.8797721  44.4098274
  25.7524824  44.1544549  44.3131327  25.9012142  45.6407081  44.0665349
  18.1594199  39.0983145  43.5319579  17.2823666  38.9771946  43.1681825
  18.6351952  38.3069223  43.2798467  24.6554776  37.2604065  53.4216305
  25.1523475  36.5074027  53.1017375  23.8841757  37.2968382  52.8559514
  25.7384556  46.0175752  50.9954728  24.8040835  46.1377215  50.8259432
  25.9161225  45.1148219  50.7314738  21.2389744  39.4021448  53.1487989
  20.8687532  38.8492488  53.8368895  21.7348837  38.7979581  52.5962989
  29.1257108  41.8593071  51.5304762  29.5917560  42.6921063  51.4565065
  29.5764608  41.3938053  52.2350021  27.1933339  48.2036893  48.5290914
  27.4693183  48.0893487  49.4384788  26.3237837  47.8054378  48.4903087
  27.0973770  34.2273658  55.5695663  26.1836850  34.4577885  55.7377870
  27.5266872  34.3112103  56.4209696  12.8872893  40.6925000  48.9732484
  13.1826334  39.7835679  48.9199538  11.9860929  40.6712740  48.6513487
  16.4167140  38.7680997  54.9560033  15.6953726  39.3816965  54.8167506
  17.2060396  39.3038762  54.8776679  14.6160735  38.3739098  49.0971810
  14.2873441  37.4936477  48.9146915  14.9700106  38.3186767  49.9848199
  17.7302558  38.6612068  49.4647287  18.0698630  39.1897989  48.7425896
  18.1774678  38.9992474  50.2405854  20.4245999  37.0449119  58.9150355
  20.0842819  36.2456932  59.3171035  19.7185005  37.3450829  58.3427188
  21.0762471  34.1298431  57.3677678  21.8988540  33.6558909  57.2456569
  21.3200534  34.9088915  57.8676365  19.7170705  37.1586689  47.6640580
  20.4379068  37.5367942  47.1604297  19.0936009  37.8775566  47.7675558
  23.8601828  37.8631838  48.5998912  24.0765442  38.7456476  48.2987740
  23.3795895  37.4718052  47.8704554  18.6001049  40.8217552  55.1769657
  18.4545630  41.1357855  56.0693938  18.1226253  41.4402452  54.6240556
  20.4597432  37.8120100  55.2250546  20.4459001  36.9161193  54.8882844
  21.1769860  37.8190763  55.8588833  22.3123563  38.2457440  57.2703674
  22.0541341  39.1674510  57.2688004  21.7808603  37.8487874  57.9604138
  19.8634328  36.6934480  50.4938117  19.9850239  35.7651126  50.6929004
  19.5736371  36.7073166  49.5816432  22.7325519  34.3789390  53.6304836
  22.7547215  34.4428723  52.6756816  23.1493578  33.5393899  53.8245343
  28.2444924  50.6674991  47.1490658  28.9395829  51.2881684  47.3677972
  28.5868074  49.8170343  47.4243035  30.1436347  48.1174697  48.6777988
  30.6687671  48.4561970  47.9527308  30.0558700  47.1821712  48.4941123
  18.8364387  48.2788613  48.5854004  18.9852508  48.9624077  47.9320676
  19.6430831  48.2593703  49.1003459  16.5917020  44.3053790  49.5915073
  16.3463062  43.4016120  49.7895283  16.7612935  44.3070941  48.6494551
  15.8612668  40.0382148  47.0901234  15.1681913  40.1126503  46.4341270
  15.6164420  39.2742491  47.6122751  24.5326324  31.5977749  54.4940725
  24.8128078  30.9300938  55.1201151  25.3176931  31.7906845  53.9815389
  22.3359793  50.7736743  46.0565751  21.7633760  51.3926930  45.6036223
  22.9092586  51.3236105  46.5905673  25.5557052  51.0573893  47.1874333
  26.4887726  50.9919455  47.3907209  25.4680265  51.8930160  46.7288866
  28.1845069  50.3739764  44.1478281  28.1058701  50.0399627  45.0414039
  29.0054736  50.8661531  44.1469753  22.7206591  42.1097556  43.3981804
  23.6665696  41.9803764  43.4670222  22.3420836  41.3712218  43.8751232
  28.6928476  33.7753562  53.3608695  28.4953297  33.4668650  54.2452027
  29.3028181  34.5015201  53.4906625  20.9049508  40.0347532  43.3336689
  19.9980964  39.7380645  43.4099402  21.1825489  39.7377350  42.4670975
  22.5211574  34.5784422  49.4880930  21.7112302  34.2331507  49.8636176
  23.2095991  34.2691966  50.0768542  24.4502122  33.6562469  51.1105227
  25.0033161  34.0757922  51.7695250  24.6872209  32.7298217  51.1528183
  19.6748293  36.8934467  43.4748668  20.5367457  37.2189366  43.7344485
  19.8598637  36.1065963  42.9621734  27.8280929  35.7662994  50.6183891
  27.2479598  36.4247798  50.2361943  27.5616862  34.9440338  50.2071309
  26.2784496  35.1668052  52.8205211  26.7784274  35.2784586  52.0119530
  26.9220104  34.8629104  53.4606020  26.6105807  37.9263084  49.6740239
  25.7231662  38.2112735  49.4560434  27.0259797  37.7656848  48.8267516
  29.9620344  37.9509605  53.3894579  30.7380734  38.4406058  53.6619195
  29.2368478  38.3767659  53.8466448  25.7549021  47.6907759  43.7688259
  26.4584871  47.8957761  44.3845915  25.0311670  48.2584521  44.0337343
  26.5846831  43.4417620  49.8890529  26.5282033  43.8986172  49.0498162
  27.1375174  42.6808305  49.7113372  30.3951637  39.2307352  50.7140649
  30.1388571  38.8303988  51.5448857  29.7704505  39.9451146  50.5890788
  27.6635718  48.1290288  45.8186719  28.4981322  47.6971487  45.6364194
  27.5020061  47.9572302  46.7463614  27.3181611  44.6322401  47.1843059
  27.2630414  44.4666673  46.2431503  26.6927666  45.3398434  47.3405248
  20.6277736  34.1330510  46.7628377  20.6156406  35.0772350  46.9196648
  21.5201158  33.9500656  46.4687838  24.4429855  30.7273287  51.0174314
  23.6762251  30.1731774  51.1630996  24.8540560  30.7995156  51.8788465
  28.9987954  54.4275063  43.5319579  28.1217420  54.3063864  43.1681825
  29.4745707  53.6361141  43.2798467  31.7443263  55.3639450  43.3336689
  30.8374718  55.0672563  43.4099402  32.0219244  55.0669268  42.4670975
  30.5142047  52.2226385  43.4748668  31.3761211  52.5481283  43.7344485
  30.6992392  51.4357881  42.9621734  31.4671490  49.4622428  46.7628377
  31.4550160  50.4064268  46.9196648  32.3594912  49.2792574  46.4687838
  14.6132486   4.9938226  42.6387203  15.2510896   4.8744974  41.9350543
  14.4953329   5.9419070  42.6975155   7.2809008   6.8001131  38.5645618
   6.7173873   6.7091068  37.7961906   7.1661403   5.9801035  39.0448111
  12.8608566  10.4672099  33.8760083  12.2096546  11.0526179  33.4894097
  13.6552929  10.9978294  33.9355121   6.7864194   7.5561236  34.2747218
   7.5595070   7.0090223  34.1360093   7.1389592   8.4205485  34.4861679
   9.1230471   3.7153902  31.9065668   9.3755992   3.1935423  31.1449131
   8.1855030   3.5520047  32.0092351  14.1673754   2.7189680  39.7140411
  14.9536843   2.3009103  39.3630828  14.4312459   3.6235772  39.8822059
  14.3383832   8.1562531  34.4129068  13.7029665   8.2297157  35.1249972
  14.0081238   8.7456129  33.7348147  19.5682181   2.6564914  40.6173389
  20.3007353   2.0864130  40.8511219  18.8121537   2.2686514  41.0579895
   8.8426760   5.6182008  34.1090043   8.7263018   4.9426911  34.7771127
   8.9529020   5.1314382  33.2922196  11.1858301   5.0792155  37.8136732
  10.8216508   4.5522776  38.5249653  12.0425417   4.6890624  37.6403217
  10.8053009   2.5639712  33.7944747  10.6852634   3.0096763  34.6330227
  10.1105597   2.9125030  33.2358285   8.5659901  15.3343354  37.4434878
   8.4883931  16.2851179  37.5223359   7.9621545  14.9889226  38.1009805
  16.5038075   3.0361185  34.6225081  17.4155931   3.2688572  34.4472779
  15.9947722   3.6198230  34.0600160  15.1107657   8.0187004  42.0138663
  14.4816520   8.1832718  41.3114730  14.7233319   8.4328613  42.7849627
  18.9896889   8.9541442  39.3683026  18.3047927   9.3340343  38.8180060
  19.0740739   9.5636768  40.1014974  10.6635619   7.7561412  39.2788748
  11.1273965   8.0349115  38.4893370  10.3992417   6.8544857  39.0961838
   9.6004505   3.8784564  36.0878313  10.3028549   4.3305608  36.5552239
   9.2685134   3.2368383  36.7158206  17.3593649   9.4773356  44.1400727
  18.1811093   9.0753543  43.8583409  17.3556052   9.3741590  45.0916843
  25.4499642   5.8212105  40.4885699  24.6963350   5.2519503  40.3329703
  25.5847183   5.7874769  41.4356333  10.8398270  10.6925507  36.1640418
  10.7043945  11.5377043  36.5925266  11.3808082  10.8944785  35.4006352
   4.2927667   8.2100945  36.7368343   4.8052188   9.0044195  36.8873908
   4.9450380   7.5127235  36.6701945   6.1022552  11.3266701  38.8191096
   6.2789180  12.2484666  38.6312080   6.8979386  11.0125120  39.2485476
  14.1541016   4.2064680  33.2011747  13.6387640   4.9769285  33.4400134
  13.8818325   3.5329816  33.8244808  19.1275290   6.9597035  35.1364920
  18.3504733   6.6208194  34.6920082  19.8066771   6.9649658  34.4619885
  13.9427319   2.0791772  35.0271528  13.6377455   2.3937921  35.8781671
  14.8957761   2.1573192  35.0698861  12.3873751   8.2381995  36.6764482
  11.8595113   7.5034755  36.3637719  11.8861254   9.0156672  36.4304450
  17.3666597   6.4331016  41.7931528  16.7090272   7.1230277  41.8811657
  18.1706996   6.8227448  42.1365514  16.1772056   4.7875388  39.8435470
  16.6903938   5.4205380  40.3457180  16.8273280   4.1876584  39.4778830
  10.5326351   6.0562206  29.6799455   9.6253413   5.8251459  29.8790604
  11.0297383   5.2599825  29.8673436  13.4394430  14.7659713  32.5996141
  12.7656129  15.0691410  33.2081099  13.8260252  15.5688793  32.2501598
  13.4387935   3.6616260  37.2196491  14.1859754   4.1737657  36.9103613
  13.7079524   3.3400312  38.0800884  11.7114585   6.1574800  34.2023445
  10.8025804   5.8733833  34.2995915  11.7409669   6.5773879  33.3426752
  16.9433852   9.7681390  37.9714612  16.4896179   8.9272300  38.0279803
  16.3127819  10.4042788  38.3089393  15.8866772   0.6973376  39.2015280
  15.1489529   0.1850762  39.5325523  16.1393545   0.2573758  38.3898557
  15.3866791  11.6057887  38.9064431  15.6789766  12.1662944  38.1876796
  15.8965412  11.8986448  39.6617590  11.4090673   7.6983544  31.5411524
  10.9710103   6.9819403  31.0817161  12.1501114   7.9259659  30.9796615
  10.3500417  12.3838238  39.9957884  10.3076595  12.6099084  39.0666416
  11.2663116  12.1501612  40.1443685  19.5263787   5.9740741  37.5987842
  19.3881686   6.1642337  36.6709031  19.1700006   6.7360124  38.0555893
  19.5533167   8.0417268  42.6099114  19.9869674   7.9492557  43.4582168
  20.2664748   8.0174769  41.9719130   8.4666217   9.2601267  39.7919847
   9.2606816   8.7651587  39.5902422   7.7557910   8.7319130  39.4287552
  13.2861062  11.6419362  44.1432214  13.3398084  12.2110299  44.9109930
  12.4175843  11.8121247  43.7786251  20.4148717   8.0840969  45.1431999
  20.6084607   8.9886779  45.3891274  20.3149335   7.6248388  45.9770584
  11.6385645  14.9339385  34.8143220  11.8137401  14.4627428  35.6288843
  10.9518433  15.5605151  35.0424481  12.5942709   9.2111891  40.8606521
  12.2592541   9.1712661  41.7564171  12.0946654   8.5456607  40.3876932
  15.5301900   6.5567926  31.1343581  14.9131071   5.8314754  31.0376634
  15.0618389   7.3177286  30.7910655   6.2046731  18.0828748  41.5883080
   6.4443329  18.7147272  42.2662099   5.3615927  17.7316788  41.8748440
  10.7174593  13.8907870  43.9924584  10.6444764  14.6962842  44.5043889
  10.2751986  14.0899836  43.1672606  10.5064372  13.1279640  37.5027406
   9.7231894  13.6701321  37.5965630  11.2057117  13.6453620  37.9021647
  21.6690780   4.6414635  41.7879903  21.6580656   5.5239351  41.4173836
  20.8008159   4.2886186  41.5934440  13.1773276  13.7894704  46.1482743
  13.8901248  14.4242169  46.0758644  12.6863305  13.8858570  45.3322745
  14.8990803   7.6945957  37.7200035  13.9647082   7.8147420  37.5504739
  15.0767471   6.7918424  37.4560045  18.2863354   3.5363276  38.2550069
  18.7523807   4.3691268  38.1810371  18.7370855   3.0708258  38.9595327
  16.3539585   9.8807098  35.2536221  16.6299429   9.7663692  36.1630095
  15.4844084   9.4824583  35.2148394  12.9893649  14.1293449  38.8969034
  13.1716044  13.3115104  39.3596787  13.8126635  14.3461141  38.4593924
  13.3235815  13.0561634  36.1584083  13.8523581  12.5454088  35.5454245
  13.5864035  12.7404164  37.0229616   6.6791563  14.1076750  38.9181859
   6.0101938  14.5922878  38.4345899   6.5404433  14.3545971  39.8325237
  10.8196831  16.1420494  45.5164517  11.3715140  16.3052115  46.2813602
  11.1603025  16.7324932  44.8444542  13.9565219  14.0902469  42.5028199
  13.8316358  13.2892209  41.9939145  14.6144310  14.5848663  42.0142169
  16.0200127  11.8911489  44.1307749  15.0730463  11.7716841  44.0586076
  16.3682900  11.0033988  44.2134011  13.0246560  11.6864206  40.3312102
  12.8771523  10.7580913  40.5119672  13.8500054  11.7084296  39.8469177
  16.6280682  12.5092764  41.4176974  17.5527230  12.3035626  41.2801426
  16.4595986  12.2609166  42.3266316  16.4175999  13.0278432  36.7739066
  16.5912876  12.4624854  36.0212918  16.9104890  13.8279327  36.5918556
  22.2715390   5.7914855  38.3929366  22.7146536   5.0422180  37.9948489
  21.3941900   5.7824991  38.0103098  17.4051171  12.3445196  33.8735964
  18.1002076  12.9651889  34.0923279  17.7474321  11.4940547  34.1488342
  19.3042594   9.7944902  35.4023295  19.8293918  10.1332175  34.6772615
  19.2164947   8.8591917  35.2186430  10.9883255  15.8616885  39.7618548
  10.5488245  15.3693264  40.4551405  11.7391372  15.3189853  39.5210623
   3.4675594  12.0528426  39.7643176   4.2933614  11.7532198  39.3841820
   3.1169646  11.2836048  40.2132965   8.4357127  11.4054894  41.8340850
   7.8137136  10.7425599  41.5343078   9.1061994  11.4316026  41.1514498
   7.9970634   9.9558818  35.3099310   8.1458754  10.6394282  34.6565983
   8.8037077   9.9363908  35.8248766  21.8148254   7.2620093  40.7851813
  22.6495146   7.7009897  40.9489374  21.9507383   6.7858746  39.9660059
   5.7523267   5.9823995  36.3160379   5.5069309   5.0786325  36.5140589
   5.9219181   5.9841146  35.3739857  11.4966039  12.4506948  32.7811058
  10.9240007  13.0697135  32.3281530  12.0698833  13.0006310  33.3150980
  14.7163299  12.7344098  33.9119640  15.6493972  12.6689660  34.1152516
  14.6286512  13.5700365  33.4534173  17.3451316  12.0509968  30.8723588
  17.2664947  11.7169832  31.7659346  18.1660983  12.5431736  30.8715060
  20.0429507   4.9171708  44.0799906  20.0105827   3.9787708  44.2659590
  20.6530131   4.9955744  43.3465731  11.8812838   3.7867761  30.1227110
  12.8271943   3.6573969  30.1915528  11.5027083   3.0482423  30.5996538
  25.8606057   5.9787715  43.2205943  26.5909445   5.7173003  43.7813646
  25.2513002   5.2416437  43.2608011  23.9421354   4.1195577  43.8180394
  23.2154518   3.9851542  43.2096886  23.5268641   4.4272406  44.6237112
  15.7712054  -0.3966711  36.3985546  14.8837909  -0.1117060  36.1805741
  16.1866043  -0.5572947  35.5512823  19.1226590  -0.3720190  40.1139885
  19.8986980   0.1176263  40.3864502  18.3974725   0.0537864  40.5711755
  21.5599149   0.3407429  41.1713826  22.1543640   0.1003165  40.4607134
  21.6325733  -0.3785440  41.7987362   3.7796305  14.1841040  41.4856991
   3.6450773  13.4241441  40.9194989   3.3628367  14.9081940  41.0185780
  14.9155268   9.3677964  30.4933566  15.6191118   9.5727966  31.1091222
  14.1917916   9.9354726  30.7582649  15.7453078   5.1187825  36.6135836
  15.6888279   5.5756377  35.7743469  16.2981420   4.3578510  36.4358679
  19.5557884   0.9077557  37.4385956  19.2994818   0.5074193  38.2694163
  18.9310752   1.6221351  37.3136095  23.8670222   3.6473630  39.9457247
  23.3069780   3.7166820  40.7188809  23.2613725   3.4714615  39.2256743
   6.9365431  15.0810357  41.6975433   6.8197815  16.0255790  41.5954124
   6.1157877  14.7783919  42.0861233  16.8241965   9.8060493  32.5432026
  17.6587569   9.3741692  32.3609501  16.6626308   9.6342507  33.4708920
  16.4787857   6.3092606  33.9088365  16.4236661   6.1436878  32.9676809
  15.8533913   7.0168639  34.0650555   7.9619945  15.7338619  44.9131362
   8.8647191  15.7662229  45.2297857   7.7357315  14.8039070  44.9277698
   9.7173547  14.4869606  41.5741440   8.7669178  14.4871467  41.4605813
  10.0206033  13.7402340  41.0577475  25.4526240  20.3230144  42.6387203
  26.0904650  20.2036891  41.9350543  25.3347083  21.2710988  42.6975155
  22.2615946  20.2757572  42.5748727  21.9234458  20.1598637  41.6869262
  23.1305715  19.8748737  42.5549734  18.1202762  22.1293049  38.5645618
  17.5567627  22.0382986  37.7961906  18.0055157  21.3092953  39.0448111
  22.7435729  21.4292424  48.5334933  22.7324370  21.0345222  47.6615437
  22.9056369  20.6958497  49.1268704  15.6667194  23.6244240  41.4029839
  16.4588486  23.2835065  40.9876138  15.9063844  23.7339215  42.3231992
  23.7002321  25.7964016  33.8760083  23.0490301  26.3818097  33.4894097
  24.4946684  26.3270211  33.9355121  17.6257948  22.8853154  34.2747218
  18.3988824  22.3382141  34.1360093  17.9783347  23.7497403  34.4861679
  19.4642991  24.2129536  47.4814117  19.1732857  25.1175167  47.3660783
  20.0999975  24.2546063  48.1958187  20.3899197  21.5906384  44.0715477
  20.9862770  21.3662407  43.3572440  20.4474169  20.8491130  44.6740924
  19.9624226  19.0445820  31.9065668  20.2149747  18.5227341  31.1449131
  19.0248785  18.8811965  32.0092351  25.0067509  18.0481598  39.7140411
  25.7930598  17.6301021  39.3630828  25.2706213  18.9527690  39.8822059
  30.4075936  17.9856831  40.6173389  31.1401108  17.4156048  40.8511219
  29.6515292  17.5978432  41.0579895  19.6820515  20.9473926  34.1090043
  19.5656773  20.2718829  34.7771127  19.7922774  20.4606300  33.2922196
  22.0252056  20.4084073  37.8136732  21.6610263  19.8814694  38.5249653
  22.8819171  20.0182542  37.6403217  27.9301356  11.6978405  45.0767998
  27.5984681  12.5673816  44.8529213  27.3346970  11.3814689  45.7562028
  21.6657543  15.4373972  32.8098080  21.8331945  16.3054209  33.1768551
  21.4754712  15.6001254  31.8859370  24.4232876  23.8990951  44.4763911
  24.1233599  24.8015990  44.3679718  24.0783935  23.6323135  45.3285064
  17.8745357  20.3504748  40.5100615  16.9495854  20.2180962  40.7178307
  18.1229770  21.1298967  41.0070557  27.8230019  16.4173491  42.1561348
  26.9146897  16.3488900  41.8620109  27.7717615  16.8945436  42.9843173
  21.6446763  17.8931630  33.7944747  21.5246389  18.3388681  34.6330227
  20.9499352  18.2416948  33.2358285  15.2354168  19.9938022  41.3444404
  15.3646549  20.2472501  42.2583816  14.5551620  20.5865730  41.0249059
  19.4053655  30.6635272  37.4434878  19.3277685  31.6143097  37.5223359
  18.8015299  30.3181144  38.1009805  21.8970885  17.8363137  50.0996245
  21.1204219  18.3957057  50.0899110  22.5361448  18.3219920  50.6211115
  29.6891666  14.6189930  43.9339222  29.0466046  14.9122463  43.2879016
  29.1846594  14.5042850  44.7392419  20.1517258  20.6448590  49.6614212
  20.8931942  21.1833634  49.3849036  19.4454243  21.2714879  49.8185764
  25.6272597  22.7877731  48.2586374  26.0355953  22.3460141  47.5141006
  24.9049859  22.2130358  48.5120567  21.9803667  17.7250338  45.6319931
  22.8264862  18.1489751  45.7754580  21.9202305  17.0683962  46.3258494
  25.9501412  23.3478922  42.0138663  25.3210274  23.5124636  41.3114730
  25.5627074  23.7620531  42.7849627  29.8290644  24.2833359  39.3683026
  29.1441682  24.6632261  38.8180060  29.9134493  24.8928686  40.1014974
  25.1303113  15.3854706  47.2901104  24.8864044  16.1396767  46.7535380
  25.4063043  15.7640054  48.1248351  27.0841575  21.9293318  45.9678370
  27.2958471  22.5725078  45.2912751  27.0371324  21.0955635  45.5000300
  24.6867804  14.5411139  42.8714942  23.8252283  14.8392393  43.1631680
  24.7130239  14.7581538  41.9395975  21.5029374  23.0853330  39.2788748
  21.9667719  23.3641033  38.4893370  21.2386172  22.1836774  39.0961838
  18.3953455  22.6324811  42.2168511  18.9654812  23.0612080  41.5785995
  18.9861567  22.3507396  42.9152697  20.4398260  19.2076482  36.0878313
  21.1422303  19.6597526  36.5552239  20.1078888  18.5660301  36.7158206
  18.8878621  17.7988239  50.4629522  18.2577282  18.4804519  50.6964919
  18.7814709  17.6871320  49.5182660  14.1823594  17.4660035  41.3895446
  13.3922648  17.7217563  40.9135557  14.6734841  18.2808372  41.4947487
  28.1987403  24.8065274  44.1400727  29.0204847  24.4045461  43.8583409
  28.1949806  24.7033508  45.0916843  16.1338339  17.8304614  38.3478923
  15.3369502  17.9423308  38.8662419  15.9063931  18.1691266  37.4819814
  21.9644007  24.3549317  46.2961438  22.0288439  24.8169724  47.1319610
  21.2554931  23.7246682  46.4243748  12.4661297  17.7190525  43.8210437
  12.7169335  18.6037535  44.0868013  13.0020845  17.5395127  43.0485529
  36.2893396  21.1504022  40.4885699  35.5357105  20.5811420  40.3329703
  36.4240938  21.1166687  41.4356333  21.6792024  26.0217425  36.1640418
  21.5437699  26.8668960  36.5925266  22.2201837  26.2236702  35.4006352
  15.1321422  23.5392863  36.7368343  15.6445942  24.3336113  36.8873908
  15.7844135  22.8419153  36.6701945  16.9416306  26.6558619  38.8191096
  17.1182935  27.5776584  38.6312080  17.7373140  26.3417038  39.2485476
  21.0827325  13.5166884  50.4175030  21.8237038  14.1174037  50.3379492
  21.3145248  12.7744521  49.8593072  16.2268663  18.7023251  48.6953260
  16.1122178  17.8008508  48.9960358  15.3713181  18.9486948  48.3438076
  23.3060501  26.6440991  50.2940760  22.8624355  25.8577370  49.9761665
  23.9677714  26.8320142  49.6284651  18.0647622  28.1736793  44.8201439
  18.6155047  28.0453856  44.0478433  17.2259098  28.4731682  44.4696331
  25.4041739  26.9243791  48.3222161  25.3860214  27.7452672  47.8302431
  26.3261659  26.7997866  48.5472303  21.8614793  24.4387921  49.1645670
  22.3943130  23.6776209  48.9344978  21.3328874  24.1461572  49.9069824
  25.0284488   9.5447986  44.6939312  24.6848757  10.4349628  44.6178422
  25.3963451   9.3549644  43.8308897  13.0970339  21.8681517  37.5127914
  13.9345561  22.2778525  37.2961621  13.2748606  20.9280959  37.4828108
  22.5781882  14.3806298  38.2596985  21.7223478  13.9913149  38.0802624
  22.9908833  14.4598259  37.3996771  24.1081028  11.9152642  42.6588545
  23.6045824  11.8782777  41.8456350  24.4011635  12.8245384  42.7185201
  20.3523914  11.9991371  41.6654727  21.2176911  11.8034180  41.3060616
  20.4201423  11.7701723  42.5924083  23.2267506  23.5673913  36.6764482
  22.6988867  22.8326673  36.3637719  22.7255008  24.3448589  36.4304450
  28.2060352  21.7622933  41.7931528  27.5484026  22.4522195  41.8811657
  29.0100751  22.1519365  42.1365514  17.9586233  14.2293579  39.0371093
  18.5329985  14.0068761  38.3044286  18.5457216  14.2982274  39.7899695
  18.2855820  16.2598040  33.0566979  17.4493133  16.5972727  33.3776253
  18.1460590  16.1247020  32.1194116  20.2608901  11.1034828  37.7646163
  19.6073313  10.7883845  37.1402778  20.2189375  10.4810569  38.4905986
  23.4946641  17.5916762  42.0893810  22.5769203  17.8131709  41.9315498
  23.9106785  17.6663072  41.2305518  27.7827607  25.0973308  37.9714612
  27.3289934  24.2564218  38.0279803  27.1521573  25.7334706  38.3089393
  26.7260526  16.0265294  39.2015280  25.9883283  15.5142680  39.5325523
  26.9787300  15.5865675  38.3898557  26.2260546  26.9349804  38.9064431
  26.5183520  27.4954861  38.1876796  26.7359167  27.2278365  39.6617590
  26.8272154   8.8041546  39.7957049  27.1331030   7.9438909  39.5082964
  27.5524758   9.3959166  39.5956043  13.1196510  19.2072232  38.1838647
  12.9220910  18.6141593  37.4589714  12.5643174  18.9024442  38.9014586
  21.0993233  19.0995339  40.3033240  21.1541843  18.1469175  40.2275717
  20.2884435  19.2554778  40.7874539  19.0385593  17.7172398  38.0623619
  18.2253459  18.0166569  38.4688811  19.5344587  17.3228087  38.7798101
  21.1894171  27.7130155  39.9957884  21.1470350  27.9391002  39.0666416
  22.1056870  27.4793530  40.1443685  24.6359805  18.1814223  46.8938513
  24.9909193  18.4085696  47.7532979  25.2831936  18.5132600  46.2715768
  18.5299668  15.2890754  43.6784854  19.1699047  15.1479513  42.9807817
  17.6977199  15.0025267  43.3023456  30.3926922  23.3709186  42.6099114
  30.8263428  23.2784475  43.4582168  31.1058502  23.3466686  41.9719130
  19.3059972  24.5893184  39.7919847  20.1000570  24.0943505  39.5902422
  18.5951664  24.0611048  39.4287552  24.1254816  26.9711280  44.1432214
  24.1791839  27.5402216  44.9109930  23.2569598  27.1413165  43.7786251
  15.6142735  18.7336266  35.8679599  14.6840324  18.6720722  36.0849561
  15.7100207  18.2112219  35.0716241  15.5328284  15.2591079  38.4557841
  15.7935102  16.1736412  38.3467001  16.3545457  14.7915522  38.6054454
  17.0053210  16.6728836  45.6256665  17.6776263  16.4646198  44.9769314
  16.1782996  16.4750922  45.1861898  31.2542471  23.4132886  45.1431999
  31.4478361  24.3178697  45.3891274  31.1543089  22.9540306  45.9770584
  22.9078782  13.2990777  47.6422326  22.2606697  13.9980727  47.5486803
  23.6779797  13.7326921  48.0098575  26.3157580  23.5639629  50.7172880
  26.1643086  23.3350181  49.8002963  26.3062259  24.5210231  50.7304225
  23.0842916  21.1371542  45.7019146  24.0134976  21.2882702  45.5288113
  22.6633946  21.2255563  44.8467793  21.8831248  25.1622206  43.4717684
  21.7442334  24.7940991  44.3443622  21.0945844  25.6769846  43.3001641
  22.4779400  30.2631303  34.8143220  22.6531156  29.7919346  35.6288843
  21.7912188  30.8897069  35.0424481  23.4336463  24.5403809  40.8606521
  23.0986296  24.5004579  41.7564171  22.9340409  23.8748525  40.3876932
  17.4080707  19.9471439  46.3859103  17.2700505  19.2151678  46.9870642
  18.3185631  19.8580339  46.1043290  20.0363008  19.6591398  45.8742782
  20.7462626  19.0184591  45.8329401  19.9932316  19.9104293  46.7968963
  28.0249786  26.5958752  48.7949361  27.9662333  25.9117972  48.1279944
  28.4269305  27.3377742  48.3429987  18.7491942  16.6456616  47.6938422
  18.2129299  16.1947355  48.3460018  18.1608650  16.7802525  46.9508886
  17.0440485  33.4120666  41.5883080  17.2837083  34.0439190  42.2662099
  16.2009682  33.0608706  41.8748440  18.1594201  16.1045268  30.2564885
  17.2823667  15.9834069  29.8927132  18.6351954  15.3131346  30.0043774
  28.0267194  24.5598336  47.0263341  27.1393972  24.2224258  47.1489740
  28.5965745  23.8281367  47.2632107   9.6796341  20.8922427  40.3506393
  10.3667381  20.5784158  39.7627408   9.5244469  21.7963792  40.0773644
  14.4831063  15.7812624  44.7791416  14.3989252  15.1738294  44.0441826
  13.6613769  16.2721642  44.7800913  21.5568347  29.2199788  43.9924584
  21.4838519  30.0254760  44.5043889  21.1145740  29.4191754  43.1672606
  21.3458127  28.4571558  37.5027406  20.5625649  28.9993238  37.5965630
  22.0450872  28.9745538  37.9021647  24.6554777  14.2666188  40.1461611
  25.1523476  13.5136150  39.8262682  23.8841758  14.3030504  39.5804821
  32.5084534  19.9706553  41.7879903  32.4974410  20.8531269  41.4173836
  31.6401914  19.6178104  41.5934440  24.0167031  29.1186622  46.1482743
  24.7295003  29.7534087  46.0758644  23.5257059  29.2150488  45.3322745
  21.2389746  16.4083571  39.8733296  20.8687533  15.8554611  40.5614201
  21.7348838  15.8041704  39.3208296  19.0678944  26.8681066  46.9688314
  19.7688404  27.5017549  47.1217708  18.5974059  27.2095797  46.2083953
  27.0973772  11.2335781  42.2940970  26.1836851  11.4640008  42.4623177
  27.5266873  11.3174225  43.1455003  26.8680230  19.4225673  44.7940864
  26.2151680  19.6701580  44.1393317  27.2460610  18.6089811  44.4603341
  23.8287404  29.4585366  38.8969034  24.0109798  28.6407022  39.3596787
  24.6520390  29.6753058  38.4593924  24.1629569  28.3853551  36.1584083
  24.6917336  27.8746006  35.5454245  24.4257789  28.0696082  37.0229616
  22.9167803  20.1645484  51.2806901  22.2408440  20.0639613  51.9509276
  23.7395437  20.0084698  51.7442898  14.6646662  26.4017421  43.9019416
  15.2500099  25.6561109  44.0347321  14.4671501  26.7121377  44.7856080
  17.5185317  29.4368668  38.9181859  16.8495693  29.9214796  38.4345899
  17.3798187  29.6837888  39.8325237   9.2564317  18.9723021  42.6223860
   9.2948416  18.4386612  43.4160978   8.7504610  18.4458226  42.0034837
  21.6590586  31.4712412  45.5164517  22.2108894  31.6344033  46.2813602
  21.9996779  32.0616849  44.8444542  16.6355079  13.8187561  46.1186402
  16.6996406  14.6802392  45.7063800  16.5722199  13.2061563  45.3858760
  26.5101460  26.2973669  51.3713172  27.0541364  26.9103627  50.8768126
  25.9288305  26.8553247  51.8880185  12.8872894  17.6987123  35.6977791
  13.1826336  16.7897801  35.6444845  11.9860930  17.6774862  35.3758793
  24.7958973  29.4194387  42.5028199  24.6710113  28.6184127  41.9939145
  25.4538064  29.9140580  42.0142169  16.4167141  15.7743120  41.6805340
  15.6953727  16.3879087  41.5412813  17.2060397  16.3100884  41.6021986
  26.8593882  27.2203407  44.1307749  25.9124217  27.1008758  44.0586076
  27.2076655  26.3325905  44.2134011  19.2193455  13.1097546  47.9545991
  19.7427857  13.3559843  48.7172301  19.0005788  13.9417581  47.5349129
  14.6160736  15.3801221  35.8217116  14.2873442  14.4998600  35.6392222
  14.9700107  15.3248889  36.7093505  23.8640315  27.0156123  40.3312102
  23.7165277  26.0872831  40.5119672  24.6893808  27.0376214  39.8469177
  17.7302559  15.6674190  36.1892594  18.0698632  16.1960112  35.4671202
  18.1774680  16.0054597  36.9651160  27.4674437  27.8384682  41.4176974
  28.3920984  27.6327543  41.2801426  27.2989740  27.5901083  42.3266316
  20.4246000  14.0511241  45.6395662  20.0842820  13.2519054  46.0416342
  19.7185006  14.3512952  45.0672495  21.0762472  11.1360554  44.0922985
  21.8988541  10.6621032  43.9701875  21.3200535  11.9151037  44.5921671
  19.7170706  14.1648812  34.3885887  20.4379069  14.5430065  33.8849603
  19.0936011  14.8837689  34.4920865  23.8601829  14.8693961  35.3244219
  24.0765444  15.7518599  35.0233047  23.3795896  14.4780174  34.5949861
  18.6001051  17.8279674  41.9014964  18.4545631  18.1419977  42.7939245
  18.1226254  18.4464575  41.3485862  20.4597434  14.8182222  41.9495853
  20.4459002  13.9223316  41.6128151  21.1769862  14.8252886  42.5834139
  22.3123564  15.2519562  43.9948981  22.0541342  16.1736633  43.9933311
  21.7808605  14.8549997  44.6849445  27.2569753  28.3570350  36.7739066
  27.4306631  27.7916772  36.0212918  27.7498644  29.1571244  36.5918556
  13.0746713  20.3685019  44.8402625  12.5300181  21.1444827  44.9722899
  13.9526063  20.7155823  44.6821746  19.8634329  13.6996602  37.2183423
  19.9850241  12.7713249  37.4174311  19.5736372  13.7135288  36.3061739
  22.7325520  11.3851513  40.3550143  22.7547217  11.4490846  39.4002123
  23.1493579  10.5456022  40.5490649  33.1109144  21.1206772  38.3929366
  33.5540290  20.3714098  37.9948489  32.2335654  21.1116909  38.0103098
  13.8612735  19.4954915  47.7332782  13.1194471  19.6437550  48.3197412
  13.5405479  19.7563181  46.8699531  21.8056397  29.0370893  47.5313172
  22.1143524  28.7920040  48.4035871  22.6031879  29.2417532  47.0432042
  21.8277009  31.1908803  39.7618548  21.3882000  30.6985181  40.4551405
  22.5785126  30.6481770  39.5210623  14.3069348  27.3820344  39.7643176
  15.1327368  27.0824115  39.3841820  13.9563400  26.6127966  40.2132965
  19.2750882  26.7346812  41.8340850  18.6530891  26.0717517  41.5343078
  19.9455748  26.7607944  41.1514498  12.5077953  25.3006670  40.7232110
  11.6709862  24.8728844  40.5416111  12.4801599  25.4939113  41.6602901
  29.8330255  25.7569723  50.7074493  29.0425798  25.7393862  50.1678992
  29.5963609  26.2958017  51.4623530  29.9528130  22.6062189  48.0207221
  30.0026135  22.4412197  48.9622744  29.8442053  21.7389449  47.6305102
  18.8364388  25.2850735  35.3099310  18.9852509  25.9686200  34.6565983
  19.6430832  25.2655825  35.8248766  27.2431892  18.5893118  49.3366528
  28.1441755  18.4499582  49.0450526  27.3179867  18.7547572  50.2764706
  21.5774697  15.9659972  48.1819714  20.7078007  16.2593538  47.9102303
  21.8134178  16.5500417  48.9026978  31.4546327  25.0259131  48.2649243
  31.1631135  25.3889112  49.1012704  30.8418458  24.3126139  48.0862575
  32.6542009  22.5912011  40.7851813  33.4888900  23.0301815  40.9489374
  32.7901138  22.1150664  39.9660059  29.7033515  20.1491746  46.7329301
  30.1787636  20.3419392  45.9248152  28.7799080  20.2050931  46.4872685
  16.5917021  21.3115913  36.3160379  16.3463063  20.4078243  36.5140589
  16.7612936  21.3133063  35.3739857  24.2813731  12.1839589  45.6985135
  24.7995675  12.9200616  45.3731623  23.9268864  12.4903582  46.5331894
  15.8612669  17.0444270  33.8146541  15.1681914  17.1188625  33.1586577
  15.6164421  16.2804614  34.3368058  24.5326325   8.6039872  41.2186031
  24.8128079   7.9363061  41.8446458  25.3176932   8.7968967  40.7060695
  22.3359794  27.7798866  32.7811058  21.7633761  28.3989053  32.3281530
  22.9092588  28.3298227  33.3150980  28.4035184  17.0257506  44.9657607
  29.3552607  17.1255603  44.9869831  28.2338634  16.2335774  45.4755691
  26.4249563  14.1113089  45.1517008  25.8299495  14.3918102  44.4563496
  26.1399260  14.6006990  45.9233749  25.5557054  28.0636016  33.9119640
  26.4887727  27.9981577  34.1152516  25.4680267  28.8992283  33.4534173
  30.8823262  20.2463625  44.0799906  30.8499582  19.3079626  44.2659590
  31.4923885  20.3247662  43.3465731  31.0317750  17.0374669  44.1258189
  30.5156799  16.2533125  43.9388118  31.9157699  16.7093385  44.2904709
  28.6928477  10.7815684  40.0854002  28.4953298  10.4730773  40.9697334
  29.3028183  11.5077323  40.2151932  36.6999811  21.3079632  43.2205943
  37.4303200  21.0464920  43.7813646  36.0906757  20.5708354  43.2608011
  34.7815109  19.4487495  43.8180394  34.0548272  19.3143460  43.2096886
  34.3662395  19.7564323  44.6237112  22.6045285  23.1677425  51.5827767
  23.5248294  23.3456024  51.7767814  22.5694868  22.2233470  51.4307467
  20.9049510  17.0409655  30.0581996  19.9980965  16.7442767  30.1344709
  21.1825491  16.7439473  29.1916282  11.8227450  18.3616018  40.5081042
  11.5030234  17.5081326  40.2155416  11.2760878  18.5764596  41.2639009
  15.6007358  21.0778459  44.2250548  15.8193367  22.0095567  44.2438582
  16.0133131  20.7186434  45.0105352  22.5211575  11.5846544  36.2126237
  21.7112304  11.2393629  36.5881483  23.2095992  11.2754088  36.8013848
  24.4502124  10.6624591  37.8350533  25.0033162  11.0820045  38.4940557
  24.6872210   9.7360339  37.8773489  19.6748294  13.8996590  30.1993975
  20.5367458  14.2251488  30.4589792  19.8598638  13.1128086  29.6867041
  11.6915710  21.9818930  42.4774163  10.9979181  21.5672882  41.9644118
  12.4388701  22.0239466  41.8807582  27.8280931  12.7725116  37.3429198
  27.2479600  13.4309920  36.9607250  27.5616863  11.9502461  36.9316615
  26.2784497  12.1730174  39.5450518  26.7784275  12.2846709  38.7364837
  26.9220105  11.8691227  40.1851326  20.3366493  20.0808804  52.4318359
  19.8533575  20.8809164  52.6382248  20.4227432  20.0916749  51.4785803
  13.6052452  21.9137183  40.3540178  13.5823141  22.0124871  39.4022061
  13.9153089  22.7602334  40.6757345  16.2639830  23.9713338  44.4686793
  17.2183084  23.9397281  44.4016724  16.0652354  23.5103962  45.2837019
  16.8539213  22.5414455  47.0357590  17.6732101  23.0358533  47.0592428
  17.1276020  21.6246423  47.0075158  26.6105809  14.9325207  36.3985546
  25.7231664  15.2174857  36.1805741  27.0259798  14.7718970  35.5512823
  29.9620345  14.9571728  40.1139885  30.7380735  15.4468180  40.3864502
  29.2368479  15.3829782  40.5711755  32.3992903  15.6699347  41.1713826
  32.9937394  15.4295083  40.4607134  32.4719487  14.9506478  41.7987362
  14.6190059  29.5132958  41.4856991  14.4844527  28.7533359  40.9194989
  14.2022121  30.2373858  41.0185780  30.3951638  16.2369475  37.4385956
  30.1388573  15.8366110  38.2694163  29.7704506  16.9513269  37.3136095
  34.7063976  18.9765548  39.9457247  34.1463534  19.0458737  40.7188809
  34.1007480  18.8006533  39.2256743  17.7759185  30.4102275  41.6975433
  17.6591569  31.3547707  41.5954124  16.9551631  30.1075837  42.0861233
  12.1074127  16.8752588  47.7349788  12.7532990  16.3651542  48.2237013
  11.8991278  17.6121270  48.3093213  24.6327519  23.9433436  53.2341928
  25.5018679  24.1174088  52.8728563  24.1534270  24.7627853  53.1117657
  20.6277737  11.1392633  33.4873684  20.6156407  12.0834473  33.6441955
  21.5201159  10.9562778  33.1933145  18.8013699  31.0630537  44.9131362
  19.7040946  31.0954147  45.2297857  18.5751069  30.1330988  44.9277698
  20.5567301  29.8161523  41.5741440  19.6062932  29.8163385  41.4605813
  20.8599787  29.0694258  41.0577475  24.4429857   7.7335410  37.7419621
  23.6762252   7.1793896  37.8876303  24.8540562   7.8057278  38.6033772
  36.2919995  35.6522062  42.6387203  36.9298405  35.5328809  41.9350543
  36.1740838  36.6002906  42.6975155  33.1009701  35.6049490  42.5748727
  32.7628212  35.4890555  41.6869262  33.9699469  35.2040655  42.5549734
  28.9596517  37.4584966  38.5645618  28.3961382  37.3674903  37.7961906
  28.8448912  36.6384871  39.0448111  33.5829484  36.7584342  48.5334933
  33.5718125  36.3637140  47.6615437  33.7450123  36.0250414  49.1268704
  26.5060949  38.9536158  41.4029839  27.2982241  38.6126983  40.9876138
  26.7457599  39.0631133  42.3231992  34.5396075  41.1255934  33.8760083
  33.8884055  41.7110014  33.4894097  35.3340438  41.6562129  33.9355121
  30.3036745  39.5421453  47.4814117  30.0126611  40.4467084  47.3660783
  30.9393729  39.5837981  48.1958187  31.2292952  36.9198302  44.0715477
  31.8256524  36.6954324  43.3572440  31.2867923  36.1783047  44.6740924
  35.8461263  33.3773516  39.7140411  36.6324352  32.9592939  39.3630828
  36.1099967  34.2819608  39.8822059  36.0171341  38.8146366  34.4129068
  35.3817173  38.8880992  35.1249972  35.6868747  39.4039965  33.7348147
  41.2469690  33.3148749  40.6173389  41.9794862  32.7447966  40.8511219
  40.4909046  32.9270349  41.0579895  32.8645810  35.7375990  37.8136732
  32.5004017  35.2106611  38.5249653  33.7212926  35.3474459  37.6403217
  38.7695111  27.0270323  45.0767998  38.4378435  27.8965734  44.8529213
  38.1740724  26.7106607  45.7562028  32.5051297  30.7665890  32.8098080
  32.6725699  31.6346126  33.1768551  32.3148466  30.9293172  31.8859370
  35.2626630  39.2282869  44.4763911  34.9627353  40.1307908  44.3679718
  34.9177690  38.9615052  45.3285064  28.7139112  35.6796666  40.5100615
  27.7889608  35.5472880  40.7178307  28.9623525  36.4590885  41.0070557
  38.6623774  31.7465409  42.1561348  37.7540651  31.6780818  41.8620109
  38.6111370  32.2237354  42.9843173  26.0747923  35.3229939  41.3444404
  26.2040304  35.5764418  42.2583816  25.3945374  35.9157647  41.0249059
  30.2447410  45.9927189  37.4434878  30.1671440  46.9435014  37.5223359
  29.6409054  45.6473062  38.1009805  32.7364640  33.1655055  50.0996245
  31.9597974  33.7248975  50.0899110  33.3755203  33.6511838  50.6211115
  40.5285420  29.9481848  43.9339222  39.8859801  30.2414381  43.2879016
  40.0240349  29.8334768  44.7392419  38.1825584  33.6945021  34.6225081
  39.0943440  33.9272407  34.4472779  37.6735231  34.2782065  34.0600160
  30.9911012  35.9740508  49.6614212  31.7325696  36.5125552  49.3849036
  30.2847998  36.6006797  49.8185764  36.4666352  38.1169649  48.2586374
  36.8749708  37.6752059  47.5141006  35.7443613  37.5422276  48.5120567
  32.8197422  33.0542255  45.6319931  33.6658617  33.4781669  45.7754580
  32.7596059  32.3975880  46.3258494  36.7895166  38.6770839  42.0138663
  36.1604029  38.8416553  41.3114730  36.4020828  39.0912449  42.7849627
  40.6684398  39.6125277  39.3683026  39.9835436  39.9924178  38.8180060
  40.7528248  40.2220604  40.1014974  35.9696867  30.7146624  47.2901104
  35.7257799  31.4688684  46.7535380  36.2456798  31.0931971  48.1248351
  37.9235330  37.2585236  45.9678370  38.1352225  37.9016996  45.2912751
  37.8765078  36.4247553  45.5000300  35.5261559  29.8703057  42.8714942
  34.6646038  30.1684310  43.1631680  35.5523993  30.0873456  41.9395975
  32.3423128  38.4145247  39.2788748  32.8061474  38.6932950  38.4893370
  32.0779926  37.5128692  39.0961838  29.2347209  37.9616729  42.2168511
  29.8048566  38.3903997  41.5785995  29.8255321  37.6799314  42.9152697
  31.2792014  34.5368400  36.0878313  31.9816058  34.9889443  36.5552239
  30.9472643  33.8952219  36.7158206  29.7272376  33.1280156  50.4629522
  29.0971036  33.8096437  50.6964919  29.6208464  33.0163238  49.5182660
  25.0217348  32.7951952  41.3895446  24.2316402  33.0509481  40.9135557
  25.5128596  33.6100290  41.4947487  39.0381158  40.1357191  44.1400727
  39.8598602  39.7337379  43.8583409  39.0343561  40.0325426  45.0916843
  26.9732094  33.1596532  38.3478923  26.1763257  33.2715226  38.8662419
  26.7457686  33.4983184  37.4819814  32.8037761  39.6841235  46.2961438
  32.8682194  40.1461642  47.1319610  32.0948685  39.0538600  46.4243748
  23.3055051  33.0482443  43.8210437  23.5563090  33.9329453  44.0868013
  23.8414600  32.8687044  43.0485529  47.1287151  36.4795940  40.4885699
  46.3750859  35.9103338  40.3329703  47.2634692  36.4458604  41.4356333
  32.5185779  41.3509342  36.1640418  32.3831454  42.1960878  36.5925266
  33.0595591  41.5528620  35.4006352  29.0053119  27.4300922  52.8254773
  28.6120064  26.8767121  53.5002418  29.8219259  27.7411501  53.2161291
  27.7810061  41.9850537  38.8191096  27.9576689  42.9068501  38.6312080
  28.5766895  41.6708956  39.2485476  31.9221080  28.8458801  50.4175030
  32.6630793  29.4465954  50.3379492  32.1539002  28.1036439  49.8593072
  27.0662418  34.0315168  48.6953260  26.9515933  33.1300426  48.9960358
  26.2106935  34.2778865  48.3438076  34.1454255  41.9732909  50.2940760
  33.7018109  41.1869287  49.9761665  34.8071469  42.1612059  49.6284651
  28.9041376  43.5028710  44.8201439  29.4548802  43.3745774  44.0478433
  28.0652852  43.8023599  44.4696331  36.2435493  42.2535709  48.3222161
  36.2253969  43.0744590  47.8302431  37.1655413  42.1289784  48.5472303
  32.7008547  39.7679838  49.1645670  33.2336884  39.0068126  48.9344978
  32.1722629  39.4753490  49.9069824  35.8678242  24.8739904  44.6939312
  35.5242512  25.7641546  44.6178422  36.2357205  24.6841562  43.8308897
  23.9364093  37.1973435  37.5127914  24.7739315  37.6070443  37.2961621
  24.1142361  36.2572877  37.4828108  35.8328525  34.8648515  33.2011747
  35.3175149  35.6353120  33.4400134  35.5605834  34.1913651  33.8244808
  33.4175636  29.7098216  38.2596985  32.5617233  29.3205066  38.0802624
  33.8302588  29.7890177  37.3996771  34.9474783  27.2444559  42.6588545
  34.4439578  27.2074694  41.8456350  35.2405390  28.1537302  42.7185201
  31.1917669  27.3283289  41.6654727  32.0570666  27.1326098  41.3060616
  31.2595178  27.0993641  42.5924083  40.8062799  37.6180870  35.1364920
  40.0292242  37.2792029  34.6920082  41.4854280  37.6233493  34.4619885
  35.6214828  32.7375607  35.0271528  35.3164964  33.0521757  35.8781671
  36.5745270  32.8157027  35.0698861  34.0661260  38.8965831  36.6764482
  33.5382622  38.1618590  36.3637719  33.5648763  39.6740507  36.4304450
  39.0454106  37.0914851  41.7931528  38.3877781  37.7814113  41.8811657
  39.8494505  37.4811283  42.1365514  28.7979988  29.5585497  39.0371093
  29.3723740  29.3360678  38.3044286  29.3850970  29.6274191  39.7899695
  37.8559565  35.4459224  39.8435470  38.3691447  36.0789216  40.3457180
  38.5060789  34.8460419  39.4778830  31.1002656  26.4326746  37.7646163
  30.4467068  26.1175763  37.1402778  31.0583130  25.8102486  38.4905986
  32.2113860  36.7146041  29.6799455  31.3040922  36.4835294  29.8790604
  32.7084892  35.9183660  29.8673436  35.1181939  45.4243548  32.5996141
  34.4443638  45.7275245  33.2081099  35.5047761  46.2272628  32.2501598
  34.3340396  32.9208679  42.0893810  33.4162957  33.1423626  41.9315498
  34.7500540  32.9954990  41.2305518  35.1175444  34.3200095  37.2196491
  35.8647263  34.8321492  36.9103613  35.3867033  33.9984148  38.0800884
  33.3902094  36.8158636  34.2023445  32.4813313  36.5317669  34.2995915
  33.4197178  37.2357714  33.3426752  38.6221361  40.4265225  37.9714612
  38.1683688  39.5856135  38.0279803  37.9915328  41.0626624  38.3089393
  37.5654281  31.3557211  39.2015280  36.8277038  30.8434598  39.5325523
  37.8181054  30.9157593  38.3898557  37.0654300  42.2641722  38.9064431
  37.3577275  42.8246779  38.1876796  37.5752921  42.5570283  39.6617590
  37.6665908  24.1333463  39.7957049  37.9724785  23.2730827  39.5082964
  38.3918513  24.7251084  39.5956043  23.9590264  34.5364150  38.1838647
  23.7614664  33.9433511  37.4589714  23.4036928  34.2316360  38.9014586
  31.9386988  34.4287256  40.3033240  31.9935598  33.4761093  40.2275717
  31.1278190  34.5846695  40.7874539  33.0878182  38.3567379  31.5411524
  32.6497612  37.6403238  31.0817161  33.8288622  38.5843494  30.9796615
  29.8779348  33.0464316  38.0623619  29.0647213  33.3458487  38.4688811
  30.3738342  32.6520005  38.7798101  32.0287926  43.0422073  39.9957884
  31.9864104  43.2682919  39.0666416  32.9450625  42.8085448  40.1443685
  35.4753559  33.5106141  46.8938513  35.8302947  33.7377614  47.7532979
  36.1225691  33.8424517  46.2715768  41.2051296  36.6324577  37.5987842
  41.0669195  36.8226172  36.6709031  40.8487515  37.3943959  38.0555893
  29.3693423  30.6182672  43.6784854  30.0092802  30.4771431  42.9807817
  28.5370953  30.3317185  43.3023456  41.2320676  38.7001104  42.6099114
  41.6657183  38.6076393  43.4582168  41.9452257  38.6758604  41.9719130
  30.1453726  39.9185102  39.7919847  30.9394325  39.4235422  39.5902422
  29.4345419  39.3902965  39.4287552  34.9648571  42.3003198  44.1432214
  35.0185593  42.8694134  44.9109930  34.0963352  42.4705083  43.7786251
  26.3722039  30.5882997  38.4557841  26.6328856  31.5028330  38.3467001
  27.1939211  30.1207439  38.6054454  27.8446964  32.0020754  45.6256665
  28.5170018  31.7938116  44.9769314  27.0176751  31.8042840  45.1861898
  42.0936226  38.7424804  45.1431999  42.2872116  39.6470615  45.3891274
  41.9936844  38.2832223  45.9770584  33.7472536  28.6282695  47.6422326
  33.1000451  29.3272644  47.5486803  34.5173552  29.0618839  48.0098575
  37.1551334  38.8931547  50.7172880  37.0036841  38.6642099  49.8002963
  37.1456014  39.8502148  50.7304225  33.9236671  36.4663460  45.7019146
  34.8528731  36.6174619  45.5288113  33.5027701  36.5547480  44.8467793
  32.7225002  40.4914124  43.4717684  32.5836088  40.1232908  44.3443622
  31.9339599  41.0061764  43.3001641  33.3173154  45.5923221  34.8143220
  33.4924910  45.1211264  35.6288843  32.6305942  46.2188987  35.0424481
  34.2730218  39.8695727  40.8606521  33.9380050  39.8296497  41.7564171
  33.7734163  39.2040443  40.3876932  28.2474462  35.2763357  46.3859103
  28.1094259  34.5443596  46.9870642  29.1579385  35.1872257  46.1043290
  30.8756762  34.9883316  45.8742782  31.5856381  34.3476508  45.8329401
  30.8326070  35.2396211  46.7968963  38.8643541  41.9250669  48.7949361
  38.8056087  41.2409890  48.1279944  39.2663059  42.6669659  48.3429987
  29.5885696  31.9748534  47.6938422  29.0523053  31.5239272  48.3460018
  29.0002405  32.1094443  46.9508886  27.8834240  48.7412583  41.5883080
  28.1230838  49.3731107  42.2662099  27.0403436  48.3900623  41.8748440
  38.8660948  39.8890253  47.0263341  37.9787727  39.5516175  47.1489740
  39.4359499  39.1573285  47.2632107  20.5190095  36.2214345  40.3506393
  21.2061135  35.9076075  39.7627408  20.3638224  37.1255710  40.0773644
  25.3224817  31.1104542  44.7791416  25.2383006  30.5030211  44.0441826
  24.5007524  31.6013560  44.7800913  32.3962102  44.5491706  43.9924584
  32.3232273  45.3546677  44.5043889  31.9539495  44.7483672  43.1672606
  32.1851881  43.7863476  37.5027406  31.4019403  44.3285156  37.5965630
  32.8844626  44.3037455  37.9021647  35.4948531  29.5958105  40.1461611
  35.9917231  28.8428068  39.8262682  34.7235513  29.6322422  39.5804821
  43.3478289  35.2998471  41.7879903  43.3368165  36.1823186  41.4173836
  42.4795668  34.9470022  41.5934440  34.8560785  44.4478540  46.1482743
  35.5688757  45.0826005  46.0758644  34.3650814  44.5442406  45.3322745
  36.5778312  38.3529792  37.7200035  35.6434591  38.4731255  37.5504739
  36.7554980  37.4502259  37.4560045  32.0783500  31.7375488  39.8733296
  31.7081288  31.1846529  40.5614201  32.5742592  31.1333622  39.3208296
  39.9650863  34.1947112  38.2550069  40.4311316  35.0275103  38.1810371
  40.4158364  33.7292093  38.9595327  29.9072699  42.1972983  46.9688314
  30.6082158  42.8309466  47.1217708  29.4367814  42.5387715  46.2083953
  38.0327094  40.5390933  35.2536221  38.3086938  40.4247528  36.1630095
  37.1631593  40.1408418  35.2148394  37.9367526  26.5627699  42.2940970
  37.0230606  26.7931926  42.4623177  38.3660628  26.6466143  43.1455003
  37.7073985  34.7517591  44.7940864  37.0545435  34.9993498  44.1393317
  38.0854364  33.9381729  44.4603341  34.6681158  44.7877284  38.8969034
  34.8503553  43.9698940  39.3596787  35.4914144  45.0044976  38.4593924
  35.0023324  43.7145469  36.1584083  35.5311090  43.2037924  35.5454245
  35.2651544  43.3987999  37.0229616  33.7561558  35.4937402  51.2806901
  33.0802195  35.3931531  51.9509276  34.5789191  35.3376615  51.7442898
  25.5040417  41.7309338  43.9019416  26.0893853  40.9853026  44.0347321
  25.3065255  42.0413295  44.7856080  28.3579072  44.7660586  38.9181859
  27.6889447  45.2506713  38.4345899  28.2191942  45.0129806  39.8325237
  20.0958071  34.3014939  42.6223860  20.1342171  33.7678529  43.4160978
  19.5898364  33.7750144  42.0034837  32.4984340  46.8004329  45.5164517
  33.0502649  46.9635951  46.2813602  32.8390534  47.3908767  44.8444542
  27.4748834  29.1479479  46.1186402  27.5390160  30.0094310  45.7063800
  27.4115954  28.5353481  45.3858760  26.9501106  31.2202612  49.7659436
  27.5773145  30.8379689  50.3796961  26.0929025  31.0016813  50.1315129
  35.6352728  44.7486305  42.5028199  35.5103867  43.9476045  41.9939145
  36.2931819  45.2432498  42.0142169  27.2560896  31.1035037  41.6805340
  26.5347482  31.7171005  41.5412813  28.0454152  31.6392802  41.6021986
  37.6987636  42.5495325  44.1307749  36.7517972  42.4300676  44.0586076
  38.0470409  41.6617823  44.2134011  30.0587210  28.4389464  47.9545991
  30.5821611  28.6851760  48.7172301  29.8399543  29.2709499  47.5349129
  34.7034069  42.3448041  40.3312102  34.5559032  41.4164748  40.5119672
  35.5287563  42.3668132  39.8469177  38.3068191  43.1676600  41.4176974
  39.2314739  42.9619461  41.2801426  38.1383495  42.9193001  42.3266316
  31.2639755  29.3803159  45.6395662  30.9236575  28.5810972  46.0416342
  30.5578761  29.6804870  45.0672495  31.9156226  26.4652471  44.0922985
  32.7382296  25.9912949  43.9701875  32.1594290  27.2442955  44.5921671
  34.6995584  30.1985879  35.3244219  34.9159198  31.0810517  35.0233047
  34.2189651  29.8072092  34.5949861  29.4394805  33.1571592  41.9014964
  29.2939386  33.4711895  42.7939245  28.9620009  33.7756492  41.3485862
  31.2991188  30.1474140  41.9495853  31.2852757  29.2515233  41.6128151
  32.0163616  30.1544804  42.5834139  33.1517319  30.5811480  43.9948981
  32.8935097  31.5028551  43.9933311  32.6202359  30.1841915  44.6849445
  38.0963507  43.6862267  36.7739066  38.2700385  43.1208690  36.0212918
  38.5892399  44.4863162  36.5918556  23.9140467  35.6976936  44.8402625
  23.3693935  36.4736744  44.9722899  24.7919817  36.0447741  44.6821746
  30.7028084  29.0288520  37.2183423  30.8243995  28.1005166  37.4174311
  30.4130126  29.0427206  36.3061739  33.5719274  26.7143431  40.3550143
  33.5940971  26.7782764  39.4002123  33.9887333  25.8747939  40.5490649
  43.9502899  36.4498690  38.3929366  44.3934045  35.7006015  37.9948489
  43.0729409  36.4408827  38.0103098  39.0838680  43.0029032  33.8735964
  39.7789585  43.6235724  34.0923279  39.4261830  42.1524383  34.1488342
  24.7006489  34.8246833  47.7332782  23.9588225  34.9729468  48.3197412
  24.3799233  35.0855098  46.8699531  40.9830103  40.4528737  35.4023295
  41.5081427  40.7916010  34.6772615  40.8952456  39.5175752  35.2186430
  32.6450152  44.3662811  47.5313172  32.9537278  44.1211958  48.4035871
  33.4425634  44.5709449  47.0432042  32.6670764  46.5200720  39.7618548
  32.2275754  46.0277099  40.4551405  33.4178881  45.9773688  39.5210623
  25.1463103  42.7112261  39.7643176  25.9721123  42.4116033  39.3841820
  24.7957155  41.9419884  40.2132965  30.1144636  42.0638730  41.8340850
  29.4924645  41.4009435  41.5343078  30.7849503  42.0899861  41.1514498
  23.3471708  40.6298588  40.7232110  22.5103616  40.2020762  40.5416111
  23.3195353  40.8231031  41.6602901  30.1869163  30.5420518  51.4273356
  30.2357319  31.4182640  51.0451125  30.7291678  29.9997911  50.8544999
  40.7921884  37.9354107  48.0207221  40.8419889  37.7704115  48.9622744
  40.6835808  37.0681366  47.6305102  29.6758143  40.6142653  35.3099310
  29.8246263  41.2978117  34.6565983  30.4824586  40.5947743  35.8248766
  38.0825647  33.9185035  49.3366528  38.9835509  33.7791500  49.0450526
  38.1573621  34.0839490  50.2764706  32.4168452  31.2951890  48.1819714
  31.5471761  31.5885456  47.9102303  32.6527932  31.8792335  48.9026978
  43.4935763  37.9203928  40.7851813  44.3282655  38.3593733  40.9489374
  43.6294892  37.4442582  39.9660059  40.5427269  35.4783663  46.7329301
  41.0181391  35.6711310  45.9248152  39.6192835  35.5342849  46.4872685
  35.1207486  27.5131507  45.6985135  35.6389430  28.2492534  45.3731623
  34.7662619  27.8195500  46.5331894  35.3720080  23.9331789  41.2186031
  35.6521834  23.2654978  41.8446458  36.1570687  24.1260885  40.7060695
  33.1753548  43.1090783  32.7811058  32.6027516  43.7280970  32.3281530
  33.7486342  43.6590145  33.3150980  39.2428938  32.3549423  44.9657607
  40.1946361  32.4547521  44.9869831  39.0732389  31.5627692  45.4755691
  37.2643318  29.4405007  45.1517008  36.6693250  29.7210019  44.4563496
  36.9793014  29.9298908  45.9233749  36.3950808  43.3927933  33.9119640
  37.3281481  43.3273495  34.1152516  36.3074021  44.2284200  33.4534173
  39.0238825  42.7093804  30.8723588  38.9452456  42.3753667  31.7659346
  39.8448492  43.2015572  30.8715060  41.7217016  35.5755543  44.0799906
  41.6893336  34.6371544  44.2659590  42.3317640  35.6539580  43.3465731
  41.8711505  32.3666587  44.1258189  41.3550553  31.5825043  43.9388118
  42.7551453  32.0385303  44.2904709  39.5322231  26.1107602  40.0854002
  39.3347053  25.8022690  40.9697334  40.1421937  26.8369241  40.2151932
  47.5393566  36.6371550  43.2205943  48.2696954  36.3756838  43.7813646
  46.9300511  35.9000272  43.2608011  45.6208863  34.7779413  43.8180394
  44.8942027  34.6435377  43.2096886  45.2056150  35.0856241  44.6237112
  33.4439039  38.4969342  51.5827767  34.3642049  38.6747941  51.7767814
  33.4088623  37.5525388  51.4307467  22.6621204  33.6907936  40.5081042
  22.3423989  32.8373244  40.2155416  22.1154633  33.9056514  41.2639009
  26.4401112  36.4070377  44.2250548  26.6587122  37.3387485  44.2438582
  26.8526886  36.0478351  45.0105352  33.3605330  26.9138462  36.2126237
  32.5506058  26.5685547  36.5881483  34.0489747  26.6046006  36.8013848
  35.2895878  25.9916509  37.8350533  35.8426917  26.4111962  38.4940557
  35.5265964  25.0652257  37.8773489  31.3128977  31.9803583  53.6153297
  31.2125704  32.9297940  53.5465388  31.0950519  31.6521822  52.7429367
  22.5309464  37.3110847  42.4774163  21.8372936  36.8964800  41.9644118
  23.2782455  37.3531384  41.8807582  38.6674685  28.1017034  37.3429198
  38.0873354  28.7601838  36.9607250  38.4010618  27.2794379  36.9316615
  37.1178252  27.5022092  39.5450518  37.6178030  27.6138626  38.7364837
  37.7613859  27.1983145  40.1851326  31.1760247  35.4100721  52.4318359
  30.6927329  36.2101082  52.6382248  31.2621186  35.4208666  51.4785803
  24.4446207  37.2429101  40.3540178  24.4216895  37.3416788  39.4022061
  24.7546843  38.0894252  40.6757345  27.1033585  39.3005256  44.4686793
  28.0576838  39.2689198  44.4016724  26.9046108  38.8395880  45.2837019
  27.6932967  37.8706372  47.0357590  28.5125856  38.3650451  47.0592428
  27.9669775  36.9538340  47.0075158  37.4499563  30.2617125  36.3985546
  36.5625418  30.5466775  36.1805741  37.8653552  30.1010888  35.5512823
  40.8014099  30.2863645  40.1139885  41.5774489  30.7760098  40.3864502
  40.0762234  30.7121700  40.5711755  43.2386658  30.9991265  41.1713826
  43.8331149  30.7587001  40.4607134  43.3113242  30.2798395  41.7987362
  25.4583814  44.8424876  41.4856991  25.3238282  44.0825277  40.9194989
  25.0415876  45.5665776  41.0185780  36.5942777  40.0261799  30.4933566
  37.2978627  40.2311802  31.1091222  35.8705425  40.5938561  30.7582649
  37.4240587  35.7771660  36.6135836  37.3675788  36.2340212  35.7743469
  37.9768929  35.0162345  36.4358679  41.2345393  31.5661392  37.4385956
  40.9782327  31.1658028  38.2694163  40.6098261  32.2805186  37.3136095
  45.5457731  34.3057466  39.9457247  44.9857289  34.3750655  40.7188809
  44.9401234  34.1298450  39.2256743  28.6152940  45.7394193  41.6975433
  28.4985324  46.6839625  41.5954124  27.7945386  45.4367754  42.0861233
  38.5029474  40.4644328  32.5432026  39.3375078  40.0325527  32.3609501
  38.3413817  40.2926342  33.4708920  38.1575366  36.9676442  33.9088365
  38.1024170  36.8020713  32.9676809  37.5321422  37.6752475  34.0650555
  22.9467881  32.2044506  47.7349788  23.5926745  31.6943460  48.2237013
  22.7385032  32.9413188  48.3093213  29.6407454  46.3922455  44.9131362
  30.5434700  46.4246065  45.2297857  29.4144824  45.4622906  44.9277698
  31.3961056  45.1453441  41.5741440  30.4456687  45.1455303  41.4605813
  31.6993542  44.3986176  41.0577475  35.2823611  23.0627327  37.7419621
  34.5156007  22.5085814  37.8876303  35.6934316  23.1349196  38.6033772
  27.2865372  29.3512123  51.8324802  28.1496834  28.9948928  52.0428126
  26.7130783  29.0126018  52.5200206  39.7990271  52.7876884  38.5645618
  39.2355136  52.6966821  37.7961906  39.6842666  51.9676788  39.0448111
  37.3454703  54.2828076  41.4029839  38.1375995  53.9418900  40.9876138
  37.5851353  54.3923051  42.3231992  39.3045457  53.5436989  34.2747218
  40.0776333  52.9965976  34.1360093  39.6570856  54.4081238  34.4861679
  41.6411735  49.7029655  31.9065668  41.8937256  49.1811176  31.1449131
  40.7036294  49.5395800  32.0092351  46.6855018  48.7065433  39.7140411
  47.4718107  48.2884857  39.3630828  46.9493722  49.6111526  39.8822059
  41.3608024  51.6057761  34.1090043  41.2444282  50.9302664  34.7771127
  41.4710283  51.1190135  33.2922196  43.7039565  51.0667908  37.8136732
  43.3397772  50.5398529  38.5249653  44.5606680  50.6766377  37.6403217
  43.3445051  46.0957808  32.8098080  43.5119454  46.9638044  33.1768551
  43.1542221  46.2585089  31.8859370  39.5532866  51.0088583  40.5100615
  38.6283363  50.8764798  40.7178307  39.8017279  51.7882803  41.0070557
  43.3234272  48.5515465  33.7944747  43.2033898  48.9972516  34.6330227
  42.6286861  48.9000783  33.2358285  36.9141677  50.6521857  41.3444404
  37.0434058  50.9056336  42.2583816  36.2339128  51.2449565  41.0249059
  49.0219339  49.0236938  34.6225081  49.9337195  49.2564325  34.4472779
  48.5128986  49.6073983  34.0600160  46.3655313  45.1994974  42.8714942
  45.5039792  45.4976228  43.1631680  46.3917748  45.4165373  41.9395975
  43.1816883  53.7437165  39.2788748  43.6455228  54.0224868  38.4893370
  42.9173681  52.8420610  39.0961838  42.1185769  49.8660317  36.0878313
  42.8209812  50.3181361  36.5552239  41.7866397  49.2244136  36.7158206
  35.8611103  48.1243870  41.3895446  35.0710157  48.3801399  40.9135557
  36.3522350  48.9392208  41.4947487  37.8125848  48.4888449  38.3478923
  37.0157011  48.6007143  38.8662419  37.5851440  48.8275101  37.4819814
  34.1448806  48.3774360  43.8210437  34.3956844  49.2621370  44.0868013
  34.6808354  48.1978962  43.0485529  36.8108931  54.1976698  36.7368343
  37.3233451  54.9919948  36.8873908  37.4631644  53.5002988  36.6701945
  38.6203815  57.3142454  38.8191096  38.7970444  58.2360419  38.6312080
  39.4160649  57.0000873  39.2485476  46.7071997  40.2031822  44.6939312
  46.3636266  41.0933464  44.6178422  47.0750960  40.0133479  43.8308897
  34.7757848  52.5265352  37.5127914  35.6133070  52.9362361  37.2961621
  34.9536115  51.5864794  37.4828108  46.6722280  50.1940433  33.2011747
  46.1568903  50.9645038  33.4400134  46.3999588  49.5205569  33.8244808
  44.2569391  45.0390134  38.2596985  43.4010987  44.6496984  38.0802624
  44.6696342  45.1182095  37.3996771  45.7868537  42.5736477  42.6588545
  45.2833333  42.5366612  41.8456350  46.0799144  43.4829220  42.7185201
  42.0311423  42.6575207  41.6654727  42.8964420  42.4618015  41.3060616
  42.0988932  42.4285558  42.5924083  46.4608583  48.0667525  35.0271528
  46.1558718  48.3813674  35.8781671  47.4139025  48.1448945  35.0698861
  44.9055015  54.2257748  36.6764482  44.3776376  53.4910508  36.3637719
  44.4042517  55.0032425  36.4304450  39.6373742  44.8877415  39.0371093
  40.2117494  44.6652596  38.3044286  40.2244725  44.9566109  39.7899695
  39.9643329  46.9181876  33.0566979  39.1280642  47.2556562  33.3776253
  39.8248099  46.7830855  32.1194116  41.9396410  41.7618664  37.7646163
  41.2860822  41.4467681  37.1402778  41.8976884  41.1394404  38.4905986
  43.0507615  52.0437959  29.6799455  42.1434677  51.8127212  29.8790604
  43.5478647  51.2475578  29.8673436  45.1734150  48.2500597  42.0893810
  44.2556712  48.4715544  41.9315498  45.5894294  48.3246908  41.2305518
  45.9569198  49.6492013  37.2196491  46.7041017  50.1613410  36.9103613
  46.2260788  49.3276065  38.0800884  44.2295848  52.1450553  34.2023445
  43.3207068  51.8609586  34.2995915  44.2590932  52.5649632  33.3426752
  48.4048035  46.6849129  39.2015280  47.6670792  46.1726515  39.5325523
  48.6574809  46.2449511  38.3898557  48.5059663  39.4625381  39.7957049
  48.8118539  38.6022744  39.5082964  49.2312267  40.0543001  39.5956043
  34.7984019  49.8656068  38.1838647  34.6008419  49.2725428  37.4589714
  34.2430683  49.5608278  38.9014586  42.7780742  49.7579174  40.3033240
  42.8329352  48.8053010  40.2275717  41.9671944  49.9138613  40.7874539
  43.9271936  53.6859297  31.5411524  43.4891366  52.9695156  31.0817161
  44.6682377  53.9135412  30.9796615  40.7173102  48.3756234  38.0623619
  39.9040968  48.6750404  38.4688811  41.2132096  47.9811923  38.7798101
  40.2087177  45.9474589  43.6784854  40.8486556  45.8063348  42.9807817
  39.3764708  45.6609103  43.3023456  40.9847481  55.2477020  39.7919847
  41.7788079  54.7527340  39.5902422  40.2739173  54.7194883  39.4287552
  37.2930244  49.3920102  35.8679599  36.3627832  49.3304557  36.0849561
  37.3887716  48.8696054  35.0716241  37.2115793  45.9174914  38.4557841
  37.4722611  46.8320248  38.3467001  38.0332966  45.4499357  38.6054454
  38.6840719  47.3312672  45.6256665  39.3563772  47.1230034  44.9769314
  37.8570505  47.1334758  45.1861898  39.8381710  46.7629103  30.2564885
  38.9611176  46.6417904  29.8927132  40.3139463  45.9715181  30.0043774
  31.3583850  51.5506263  40.3506393  32.0454890  51.2367993  39.7627408
  31.2031978  52.4547627  40.0773644  36.1618572  46.4396459  44.7791416
  36.0776761  45.8322129  44.0441826  35.3401278  46.9305478  44.7800913
  46.3342286  44.9250023  40.1461611  46.8310985  44.1719985  39.8262682
  45.5629267  44.9614340  39.5804821  42.9177255  47.0667406  39.8733296
  42.5475042  46.5138446  40.5614201  43.4136347  46.4625539  39.3208296
  50.8044618  49.5239029  38.2550069  51.2705070  50.3567021  38.1810371
  51.2552118  49.0584011  38.9595327  48.7761281  41.8919616  42.2940970
  47.8624360  42.1223843  42.4623177  49.2054382  41.9758060  43.1455003
  30.9351826  49.6306856  42.6223860  30.9735925  49.0970447  43.4160978
  30.4292119  49.1042062  42.0034837  38.3142588  44.4771397  46.1186402
  38.3783915  45.3386228  45.7063800  38.2509708  43.8645398  45.3858760
  34.5660403  48.3570958  35.6977791  34.8613845  47.4481637  35.6444845
  33.6648439  48.3358698  35.3758793  38.0954650  46.4326955  41.6805340
  37.3741236  47.0462923  41.5412813  38.8847906  46.9684720  41.6021986
  36.2948245  46.0385056  35.8217116  35.9660951  45.1582435  35.6392222
  36.6487616  45.9832725  36.7093505  39.4090068  46.3258026  36.1892594
  39.7486141  46.8543947  35.4671202  39.8562189  46.6638432  36.9651160
  42.1033509  44.7095077  45.6395662  41.7630329  43.9102890  46.0416342
  41.3972515  45.0096787  45.0672495  42.7549981  41.7944389  44.0922985
  43.5776050  41.3204867  43.9701875  42.9988044  42.5734873  44.5921671
  41.3958215  44.8232647  34.3885887  42.1166578  45.2013900  33.8849603
  40.7723519  45.5421524  34.4920865  45.5389338  45.5277796  35.3244219
  45.7552953  46.4102434  35.0233047  45.0583405  45.1364010  34.5949861
  40.2788560  48.4863510  41.9014964  40.1333140  48.8003813  42.7939245
  39.8013763  49.1048410  41.3485862  42.1384943  45.4766058  41.9495853
  42.1246511  44.5807151  41.6128151  42.8557371  45.4836721  42.5834139
  43.9911073  45.9103398  43.9948981  43.7328851  46.8320468  43.9933311
  43.4596114  45.5133832  44.6849445  34.7534222  51.0268854  44.8402625
  34.2087690  51.8028662  44.9722899  35.6313572  51.3739658  44.6821746
  41.5421838  44.3580438  37.2183423  41.6637750  43.4297084  37.4174311
  41.2523881  44.3719124  36.3061739  44.4113029  42.0435348  40.3550143
  44.4334726  42.1074681  39.4002123  44.8281088  41.2039857  40.5490649
  35.9856857  58.0404179  39.7643176  36.8114877  57.7407951  39.3841820
  35.6350909  57.2711801  40.2132965  34.1865462  55.9590505  40.7232110
  33.3497371  55.5312680  40.5416111  34.1589108  56.1522949  41.6602901
  40.5151897  55.9434571  35.3099310  40.6640018  56.6270035  34.6565983
  41.3218341  55.9239661  35.8248766  38.2704530  51.9699748  36.3160379
  38.0250572  51.0662078  36.5140589  38.4400445  51.9716899  35.3739857
  37.5400178  47.7028106  33.8146541  36.8469423  47.7772461  33.1586577
  37.2951930  46.9388449  34.3368058  46.2113834  39.2623707  41.2186031
  46.4915588  38.5946896  41.8446458  46.9964441  39.4552803  40.7060695
  44.3994101  49.7743514  30.1227110  45.3453206  49.6449722  30.1915528
  44.0208346  49.0358176  30.5996538  50.3715986  41.4399520  40.0854002
  50.1740807  41.1314608  40.9697334  50.9815692  42.1661159  40.2151932
  42.5837019  47.6993490  30.0581996  41.6768474  47.4026603  30.1344709
  42.8613000  47.4023308  29.1916282  33.5014959  49.0199854  40.5081042
  33.1817743  48.1665162  40.2155416  32.9548387  49.2348432  41.2639009
  44.1999084  42.2430380  36.2126237  43.3899813  41.8977465  36.5881483
  44.8883501  41.9337924  36.8013848  46.1289633  41.3208427  37.8350533
  46.6820671  41.7403880  38.4940557  46.3659719  40.3944175  37.8773489
  41.3535803  44.5580425  30.1993975  42.2154967  44.8835324  30.4589792
  41.5386147  43.7711921  29.6867041  33.3703219  52.6402765  42.4774163
  32.6766690  52.2256718  41.9644118  34.1176210  52.6823302  41.8807582
  49.5068440  43.4308952  37.3429198  48.9267109  44.0893756  36.9607250
  49.2404372  42.6086296  36.9316615  47.9572006  42.8314010  39.5450518
  48.4571784  42.9430544  38.7364837  48.6007614  42.5275062  40.1851326
  35.2839961  52.5721019  40.3540178  35.2610650  52.6708706  39.4022061
  35.5940598  53.4186170  40.6757345  48.2893318  45.5909042  36.3985546
  47.4019173  45.8758693  36.1805741  48.7047307  45.4302806  35.5512823
  51.6407854  45.6155563  40.1139885  52.4168244  46.1052016  40.3864502
  50.9155988  46.0413617  40.5711755  48.2634341  51.1063578  36.6135836
  48.2069543  51.5632130  35.7743469  48.8162684  50.3454263  36.4358679
  52.0739147  46.8953310  37.4385956  51.8176082  46.4949946  38.2694163
  51.4492015  47.6097104  37.3136095  42.3065246  41.7976468  33.4873684
  42.2943916  42.7418308  33.6441955  43.1988668  41.6146614  33.1933145
  46.1217366  38.3919245  37.7419621  45.3549761  37.8377732  37.8876303
  46.5328071  38.4641114  38.6033772  18.1202763  -0.8644829  25.2890925
  17.5567629  -0.9554892  24.5207213  18.0055158  -1.6844924  25.7693418
  22.7435731  -1.5645453  35.2580240  22.7324371  -1.9592655  34.3860743
  22.9056370  -2.2979381  35.8514011  15.6667195   0.6306363  28.1275145
  16.4588487   0.2897187  27.7121445  15.9063846   0.7401338  29.0477299
  23.7002322   2.8026139  20.6005390  23.0490302   3.3880219  20.2139404
  24.4946685   3.3332334  20.6600427  17.6257949  -0.1084724  20.9992524
  18.3988825  -0.6555737  20.8605400  17.9783348   0.7559525  21.2106986
  19.4642992   1.2191658  34.2059424  19.1732858   2.1237289  34.0906090
  20.0999976   1.2608186  34.9203493  20.3899199  -1.4031493  30.7960783
  20.9862771  -1.6275471  30.0817746  20.4474170  -2.1446748  31.3986231
  25.1777587   0.4916571  21.1374374  24.5423420   0.5651197  21.8495279
  24.8474994   1.0810170  20.4593453  19.6820516  -2.0463952  20.8335349
  19.5656774  -2.7219048  21.5016433  19.7922776  -2.5331578  20.0167502
  24.4232877   0.9053074  31.2009217  24.1233600   1.8078113  31.0925025
  24.0783936   0.6385257  32.0530370  17.8745358  -2.6433129  27.2345922
  16.9495855  -2.7756915  27.4423613  18.1229772  -1.8638910  27.7315864
  19.4053657   7.6697394  24.1680185  19.3277686   8.6205219  24.2468666
  18.8015300   7.3243267  24.8255111  20.1517259  -2.3489287  36.3859519
  20.8931943  -1.8104243  36.1094342  19.4454244  -1.7222998  36.5431071
  25.6272598  -0.2060147  34.9831680  26.0355954  -0.6477736  34.2386313
  24.9049860  -0.7807519  35.2365873  25.9501413   0.3541044  28.7383969
  25.3210276   0.5186758  28.0360037  25.5627075   0.7682654  29.5094933
  29.8290645   1.2895482  26.0928333  29.1441683   1.6694383  25.5425366
  29.9134494   1.8990809  26.8260281  21.5029375   0.0915452  26.0034054
  21.9667721   0.3703155  25.2138677  21.2386173  -0.8101103  25.8207145
  18.3953456  -0.3613066  28.9413818  18.9654813   0.0674202  28.3031302
  18.9861568  -0.6430482  29.6398003  28.1987405   1.8127396  30.8646034
  29.0204848   1.4107584  30.5828716  28.1949807   1.7095631  31.8162150
  21.9644008   1.3611440  33.0206744  22.0288441   1.8231847  33.8564916
  21.2554932   0.7308805  33.1489054  21.6792026   3.0279547  22.8885725
  21.5437700   3.8731083  23.3170573  22.2201838   3.2298825  22.1251659
  15.1321423   0.5454985  23.4613650  15.6445944   1.3398235  23.6119214
  15.7844136  -0.1518724  23.3947251  16.9416308   3.6620742  25.5436403
  17.1182936   4.5838706  25.3557387  17.7373141   3.3479161  25.9730783
  23.3060502   3.6503114  37.0186067  22.8624356   2.8639492  36.7006971
  23.9677716   3.8382264  36.3529958  18.0647623   5.1798915  31.5446745
  18.6155048   5.0515979  30.7723739  17.2259099   5.4793804  31.1941638
  25.4041740   3.9305914  35.0467468  25.3860215   4.7514795  34.5547737
  26.3261660   3.8059989  35.2717609  21.8614794   1.4450043  35.8890976
  22.3943131   0.6838331  35.6590284  21.3328875   1.1523695  36.6315131
  23.2267507   0.5736036  23.4009788  22.6988869  -0.1611205  23.0883026
  22.7255010   1.3510712  23.1549757  21.3720107  -1.6083754  16.4044761
  20.4647169  -1.8394501  16.6035910  21.8691139  -2.4046135  16.5918743
  24.2788186   7.1013753  19.3241448  23.6049885   7.4045450  19.9326405
  24.6654008   7.9042833  18.9746905  22.5508341  -1.5071159  20.9268752
  21.6419560  -1.7912126  21.0241221  22.5803424  -1.0872081  20.0672058
  27.7827608   2.1035430  24.6959919  27.3289935   1.2626340  24.7525110
  27.1521575   2.7396829  25.0334699  26.2260547   3.9411927  25.6309737
  26.5183522   4.5016984  24.9122103  26.7359168   4.2340488  26.3862896
  22.2484428   0.0337584  18.2656830  21.8103858  -0.6826557  17.8062467
  22.9894869   0.2613699  17.7041922  21.1894172   4.7192278  26.7203190
  21.1470351   4.9453124  25.7911722  22.1056871   4.4855653  26.8688992
  30.3926923   0.3771308  29.3344420  30.8263429   0.2846598  30.1827474
  31.1058503   0.3528809  28.6964436  19.3059973   1.5955307  26.5165153
  20.1000572   1.1005627  26.3147728  18.5951666   1.0673170  26.1532859
  24.1254818   3.9773403  30.8677521  24.1791840   4.5464339  31.6355237
  23.2569599   4.1475288  30.5031558  26.3157581   0.5701752  37.4418186
  26.1643087   0.3412304  36.5248270  26.3062260   1.5272353  37.4549531
  23.0842917  -1.8566335  32.4264453  24.0134977  -1.7055176  32.2533420
  22.6633947  -1.7682315  31.5713099  21.8831249   2.1684329  30.1962990
  21.7442335   1.8003113  31.0688928  21.0945845   2.6831968  30.0246948
  22.4779401   7.2693425  21.5388527  22.6531157   6.7981469  22.3534149
  21.7912189   7.8959192  21.7669788  23.4336464   1.5465932  27.5851828
  23.0986297   1.5066702  28.4809478  22.9340410   0.8810648  27.1122238
  26.3695656  -1.1078034  17.8588888  25.7524827  -1.8331206  17.7621940
  25.9012144  -0.3468674  17.5155962  28.0249788   3.6020874  35.5194668
  27.9662334   2.9180095  34.8525251  28.4269306   4.3439864  35.0675294
  17.0440486  10.4182788  28.3128387  17.2837085  11.0501312  28.9907406
  16.2009683  10.0670828  28.5993746  28.0267195   1.5660458  33.7508648
  27.1393974   1.2286380  33.8735047  28.5965746   0.8343490  33.9877413
  21.5568348   6.2261911  30.7169891  21.4838520   7.0316882  31.2289196
  21.1145741   6.4253876  29.8917912  21.3458128   5.4633681  24.2272713
  20.5625650   6.0055361  24.3210937  22.0450873   5.9807660  24.6266954
  24.0167032   6.1248745  32.8728050  24.7295004   6.7596210  32.8003951
  23.5257060   6.2212611  32.0568051  25.7384559   0.0299997  24.4445341
  24.8040837   0.1501460  24.2750046  25.9161227  -0.8727536  24.1805351
  19.0678945   3.8743188  33.6933620  19.7688405   4.5079671  33.8463015
  18.5974060   4.2157920  32.9329260  27.1933341   2.2161138  21.9781527
  27.4693185   2.1017733  22.8875402  26.3237840   1.8178623  21.9393701
  23.8287405   6.4647489  25.6214341  24.0109800   5.6469145  26.0842093
  24.6520391   6.6815181  25.1839231  24.1629571   5.3915674  22.8829390
  24.6917337   4.8808129  22.2699552  24.4257790   5.0758204  23.7474923
  14.6646663   3.4079543  30.6264723  15.2500100   2.6623231  30.7592627
  14.4671502   3.7183500  31.5101387  17.5185319   6.4430791  25.6427166
  16.8495694   6.9276918  25.1591206  17.3798188   6.6900011  26.5570544
  21.6590587   8.4774534  32.2409824  22.2108895   8.6406156  33.0058909
  21.9996781   9.0678972  31.5689849  26.5101462   3.3035792  38.0958478
  27.0541366   3.9165750  37.6013433  25.9288306   3.8615370  38.6125491
  24.7958975   6.4256510  29.2273506  24.6710114   5.6246250  28.7184452
  25.4538066   6.9202703  28.7387476  26.8593883   4.2265530  30.8553056
  25.9124218   4.1070881  30.7831383  27.2076656   3.3388028  30.9379318
  23.8640316   4.0218246  27.0557408  23.7165279   3.0934953  27.2364978
  24.6893810   4.0438337  26.5714484  27.4674438   4.8446805  28.1422281
  28.3920986   4.6389666  28.0046732  27.2989741   4.5963206  29.0511623
  27.2569754   5.3632472  23.4984373  27.4306632   4.7978895  22.7458225
  27.7498645   6.1633367  23.3163863  28.2444927   4.6799237  20.5981271
  28.9395831   5.3005929  20.8168585  28.5868077   3.8294588  20.8733649
  30.1436350   2.1298942  22.1268602  30.6687674   2.4686215  21.4017922
  30.0558702   1.1945957  21.9431736  21.8056399   6.0433016  34.2558478
  22.1143525   5.7982162  35.1281178  22.6031881   6.2479654  33.7677348
  21.8277011   8.1970925  26.4863855  21.3882001   7.7047304  27.1796712
  22.5785128   7.6543893  26.2455930  14.3069350   4.3882466  26.4888483
  15.1327370   4.0886238  26.1087126  13.9563402   3.6190089  26.9378272
  19.2750883   3.7408934  28.5586156  18.6530892   3.0779639  28.2588384
  19.9455750   3.7670066  27.8759804  12.5077955   2.3068793  27.4477416
  11.6709863   1.8790967  27.2661418  12.4801600   2.5001236  28.3848208
  29.8330256   2.7631846  37.4319800  29.0425800   2.7455985  36.8924299
  29.5963610   3.3020139  38.1868836  18.8364390   2.2912858  22.0344617
  18.9852510   2.9748322  21.3811290  19.6430833   2.2717948  22.5494073
  31.4546328   2.0321254  34.9894550  31.1631136   2.3951234  35.8258011
  30.8418459   1.3188262  34.8107882  16.5917023  -1.6821965  23.0405686
  16.3463065  -2.5859635  23.2385896  16.7612937  -1.6804814  22.0985164
  22.3359795   4.7860988  19.5056364  21.7633762   5.4051175  19.0526836
  22.9092589   5.3360350  20.0396286  25.5557055   5.0698138  20.6364947
  26.4887728   5.0043700  20.8397822  25.4680268   5.9054405  20.1779479
  28.1845072   4.3864009  17.5968894  28.1058703   4.0523872  18.4904652
  29.0054738   4.8785777  17.5960367  22.6045286   0.1739547  38.3073074
  23.5248296   0.3518146  38.5013120  22.5694869  -0.7704408  38.1552773
  15.6007359  -1.9159418  30.9495855  15.8193369  -0.9842310  30.9683889
  16.0133133  -2.2751444  31.7350659  20.3366494  -2.9129074  39.1563666
  19.8533576  -2.1128714  39.3627555  20.4227433  -2.9021129  38.2031110
  16.2639832   0.9775461  31.1932099  17.2183085   0.9459403  31.1262031
  16.0652355   0.5166085  32.0082325  16.8539214  -0.4523423  33.7602897
  17.6732103   0.0420656  33.7837734  17.1276021  -1.3691455  33.7320465
  14.6190060   6.5195081  28.2102297  14.4844528   5.7595481  27.6440295
  14.2022123   7.2435980  27.7431086  25.7549023   1.7032004  17.2178873
  26.4584874   1.9082007  17.8336528  25.0311672   2.2708766  17.4827956
  17.7759186   7.4164398  28.4220740  17.6591570   8.3609830  28.3199430
  16.9551633   7.1137959  28.8106539  27.6635721   2.1414533  19.2677333
  28.4981325   1.7095732  19.0854807  27.5020064   1.9696547  20.1954227
  24.6327520   0.9495558  39.9587235  25.5018680   1.1236211  39.5973870
  24.1534272   1.7689975  39.8362964  18.8013700   8.0692659  31.6376668
  19.7040947   8.1016270  31.9543163  18.5751070   7.1393110  31.6523004
  20.5567302   6.8223646  28.2986747  19.6062933   6.8225508  28.1851119
  20.8599789   6.0756381  27.7822782  36.2919996  12.6584184  29.3632509
  36.9298406  12.5390932  28.6595849  36.1740839  13.6065028  29.4220462
  33.1009702  12.6111613  29.2994034  32.7628214  12.4952677  28.4114569
  33.9699470  12.2102778  29.2795040  28.9596518  14.4647089  25.2890925
  28.3961383  14.3737026  24.5207213  28.8448913  13.6446993  25.7693418
  33.5829485  13.7646464  35.2580240  33.5718126  13.3699263  34.3860743
  33.7450125  13.0312537  35.8514011  26.5060950  15.9598281  28.1275145
  27.2982242  15.6189105  27.7121445  26.7457600  16.0693256  29.0477299
  34.5396077  18.1318057  20.6005390  33.8884056  18.7172137  20.2139404
  35.3340439  18.6624252  20.6600427  28.4651704  15.2207194  20.9992524
  29.2382580  14.6736181  20.8605400  28.8177103  16.0851443  21.2106986
  31.2292953  13.9260425  30.7960783  31.8256525  13.7016447  30.0817746
  31.2867925  13.1845170  31.3986231  30.8017982  11.3799860  18.6310974
  31.0543502  10.8581381  17.8694437  29.8642541  11.2166005  18.7337658
  35.8461264  10.3835638  26.4385717  36.6324354   9.9655061  26.0876134
  36.1099969  11.2881730  26.6067366  36.0171342  15.8208489  21.1374374
  35.3817175  15.8943115  21.8495279  35.6868748  16.4102087  20.4593453
  41.2469692  10.3210871  27.3418696  41.9794863   9.7510088  27.5756525
  40.4909047   9.9332472  27.7825202  30.5214270  13.2827966  20.8335349
  30.4050528  12.6072869  21.5016433  30.6316530  12.7960340  20.0167502
  32.8645811  12.7438113  24.5382038  32.5004018  12.2168734  25.2494960
  33.7212927  12.3536582  24.3648524  38.7695112   4.0332446  31.8013305
  38.4378437   4.9027857  31.5774520  38.1740725   3.7168730  32.4807335
  32.5051298   7.7728013  19.5343387  32.6725701   8.6408249  19.9013858
  32.3148467   7.9355294  18.6104676  35.2626631  16.2344992  31.2009217
  34.9627355  17.1370030  31.0925025  34.9177691  15.9677175  32.0530370
  28.7139113  12.6858788  27.2345922  27.7889609  12.5535003  27.4423613
  28.9623526  13.4653008  27.7315864  38.6623775   8.7527532  28.8806655
  37.7540653   8.6842940  28.5865416  38.6111371   9.2299477  29.7088480
  32.4840519  10.2285670  20.5190054  32.3640144  10.6742721  21.3575534
  31.7893108  10.5770988  19.9603592  26.0747924  12.3292062  28.0689711
  26.2040305  12.5826541  28.9829122  25.3945375  12.9219770  27.7494366
  32.7364641  10.1717177  36.8241552  31.9597975  10.7311097  36.8144417
  33.3755204  10.6573960  37.3456422  40.5285422   6.9543970  30.6584529
  39.8859802   7.2476503  30.0124323  40.0240350   6.8396890  31.4637725
  38.1825585  10.7007143  21.3470388  39.0943441  10.9334530  21.1718085
  37.6735232  11.2844188  20.7845466  30.9911013  12.9802631  36.3859519
  31.7325698  13.5187675  36.1094342  30.2847999  13.6068919  36.5431071
  36.4666353  15.1231771  34.9831680  36.8749709  14.6814182  34.2386313
  35.7443614  14.5484399  35.2365873  32.8197423  10.0604378  32.3565237
  33.6658618  10.4843791  32.4999886  32.7596061   9.4038002  33.0503800
  36.7895168  15.6832962  28.7383969  36.1604030  15.8478676  28.0360037
  36.4020830  16.0974571  29.5094933  40.6684399  16.6187400  26.0928333
  39.9835438  16.9986301  25.5425366  40.7528249  17.2282726  26.8260281
  35.9696868   7.7208746  34.0146411  35.7257800   8.4750807  33.4780687
  36.2456799   8.0994094  34.8493658  37.9235331  14.2647359  32.6923677
  38.1352226  14.9079119  32.0158058  37.8765079  13.4309675  32.2245607
  35.5261560   6.8765179  29.5960249  34.6646039   7.1746433  29.8876986
  35.5523995   7.0935578  28.6641281  32.3423129  15.4207370  26.0034054
  32.8061475  15.6995073  25.2138677  32.0779928  14.5190814  25.8207145
  29.2347211  14.9678851  28.9413818  29.8048568  15.3966120  28.3031302
  29.8255322  14.6861436  29.6398003  31.2792016  11.5430522  22.8123619
  31.9816059  11.9951566  23.2797546  30.9472644  10.9014341  23.4403513
  29.7272377  10.1342279  37.1874829  29.0971038  10.8158560  37.4210226
  29.6208465  10.0225360  36.2427967  25.0217349   9.8014075  28.1140753
  24.2316403  10.0571603  27.6380864  25.5128597  10.6162413  28.2192794
  39.0381159  17.1419314  30.8646034  39.8598603  16.7399501  30.5828716
  39.0343562  17.0387548  31.8162150  26.9732095  10.1658654  25.0724230
  26.1763258  10.2777348  25.5907725  26.7457687  10.5045306  24.2065120
  32.8037762  16.6903357  33.0206744  32.8682195  17.1523765  33.8564916
  32.0948686  16.0600722  33.1489054  23.3055052  10.0544565  30.5455744
  23.5563091  10.9391575  30.8113320  23.8414601   9.8749167  29.7730836
  47.1287152  13.4858063  27.2131005  46.3750860  12.9165461  27.0575010
  47.2634693  13.4520727  28.1601640  32.5185780  18.3571465  22.8885725
  32.3831455  19.2023001  23.3170573  33.0595593  18.5590743  22.1251659
  29.0053120   4.4363045  39.5500080  28.6120065   3.8829243  40.2247724
  29.8219260   4.7473623  39.9406597  25.9715178  15.8746903  23.4613650
  26.4839698  16.6690153  23.6119214  26.6237890  15.1773193  23.3947251
  31.9221081   5.8520924  37.1420336  32.6630794   6.4528077  37.0624799
  32.1539004   5.1098562  36.5838379  27.0662419  11.0377291  35.4198566
  26.9515934  10.1362548  35.7205665  26.2106937  11.2840988  35.0683383
  34.1454257  18.9795031  37.0186067  33.7018111  18.1931410  36.7006971
  34.8071470  19.1674182  36.3529958  36.2435495  19.2597831  35.0467468
  36.2253970  20.0806712  34.5547737  37.1655415  19.1351907  35.2717609
  32.7008549  16.7741961  35.8890976  33.2336886  16.0130249  35.6590284
  32.1722630  16.4815613  36.6315131  23.9364094  14.2035557  24.2373220
  24.7739316  14.6132566  24.0206928  24.1142362  13.2634999  24.2073414
  35.8328526  11.8710638  19.9257053  35.3175150  12.6415242  20.1645441
  35.5605835  11.1975774  20.5490115  33.4175637   6.7160339  24.9842292
  32.5617234   6.3267189  24.8047930  33.8302589   6.7952299  24.1242077
  34.9474784   4.2506682  29.3833851  34.4439580   4.2136817  28.5701657
  35.2405391   5.1599425  29.4430508  31.1917670   4.3345412  28.3900033
  32.0570667   4.1388220  28.0305923  31.2595179   4.1055763  29.3169390
  40.8062801  14.6242993  21.8610227  40.0292243  14.2854152  21.4165389
  41.4854282  14.6295616  21.1865192  35.6214830   9.7437730  21.7516834
  35.3164965  10.0583879  22.6026978  36.5745272   9.8219150  21.7944167
  34.0661261  15.9027953  23.4009788  33.5382623  15.1680713  23.0883026
  33.5648764  16.6802630  23.1549757  39.0454107  14.0976974  28.5176835
  38.3877782  14.7876235  28.6056963  39.8494507  14.4873406  28.8610821
  28.7979989   6.5647620  25.7616400  29.3723741   6.3422801  25.0289593
  29.3850972   6.6336314  26.5145001  37.8559566  12.4521346  26.5680776
  38.3691448  13.0851338  27.0702486  38.5060790  11.8522542  26.2024137
  29.1249576   8.5952081  19.7812285  28.2886888   8.9326767  20.1021560
  28.9854346   8.4601060  18.8439422  31.1002657   3.4388868  24.4891469
  30.4467069   3.1237886  23.8648084  31.0583131   2.8164609  25.2151292
  32.2113862  13.7208164  16.4044761  31.3040923  13.4897417  16.6035910
  32.7084894  12.9245783  16.5918743  35.1181941  22.4305671  19.3241448
  34.4443639  22.7337367  19.9326405  35.5047762  23.2334751  18.9746905
  34.3340397   9.9270802  28.8139117  33.4162959  10.1485749  28.6560805
  34.7500541  10.0017112  27.9550824  35.1175445  11.3262218  23.9441797
  35.8647264  11.8383615  23.6348919  35.3867034  11.0046270  24.8046191
  33.3902095  13.8220758  20.9268752  32.4813314  13.5379791  21.0241221
  33.4197179  14.2419837  20.0672058  38.6221362  17.4327348  24.6959919
  38.1683690  16.5918258  24.7525110  37.9915329  18.0688746  25.0334699
  37.5654282   8.3619334  25.9260587  36.8277039   7.8496720  26.2570829
  37.8181056   7.9219716  25.1143863  37.0654302  19.2703845  25.6309737
  37.3577276  19.8308902  24.9122103  37.5752922  19.5632406  26.3862896
  23.9590265  11.5426273  24.9083954  23.7614665  10.9495633  24.1835020
  23.4036929  11.2378483  25.6259893  31.9386989  11.4349379  27.0278547
  31.9935599  10.4823215  26.9521023  31.1278191  11.5908818  27.5119845
  33.0878183  15.3629502  18.2656830  32.6497613  14.6465361  17.8062467
  33.8288624  15.5905617  17.7041922  29.8779349  10.0526439  24.7868926
  29.0647215  10.3520609  25.1934118  30.3738343   9.6582128  25.5043408
  35.4753561  10.5168263  33.6183820  35.8302948  10.7439736  34.4778285
  36.1225692  10.8486640  32.9961075  41.2051298  13.6386699  24.3233149
  41.0669196  13.8288295  23.3954338  40.8487516  14.4006082  24.7801200
  29.3693424   7.6244794  30.4030161  30.0092803   7.4833553  29.7053124
  28.5370954   7.3379308  30.0268763  41.2320677  15.7063226  29.3344420
  41.6657184  15.6138515  30.1827474  41.9452258  15.6820727  28.6964436
  30.1453728  16.9247225  26.5165153  30.9394326  16.4297545  26.3147728
  29.4345420  16.3965088  26.1532859  34.9648572  19.3065320  30.8677521
  35.0185594  19.8756257  31.6355237  34.0963354  19.4767205  30.5031558
  26.4536491  11.0690306  22.5924906  25.5234079  11.0074762  22.8094868
  26.5493963  10.5466259  21.7961547  26.3722040   7.5945119  25.1803148
  26.6328858   8.5090453  25.0712308  27.1939213   7.1269562  25.3299760
  27.8446966   9.0082876  32.3501972  28.5170019   8.8000239  31.7014621
  27.0176752   8.8104962  31.9107204  42.0936227  15.7486927  31.8677306
  42.2872117  16.6532737  32.1136581  41.9936845  15.2894346  32.7015891
  33.7472538   5.6344817  34.3667633  33.1000453   6.3334767  34.2732109
  34.5173553   6.0680961  34.7343881  37.1551335  15.8993670  37.4418186
  37.0036842  15.6704221  36.5248270  37.1456015  16.8564271  37.4549531
  33.9236672  13.4725582  32.4264453  34.8528732  13.6236742  32.2533420
  33.5027702  13.5609603  31.5713099  32.7225004  17.4976247  30.1962990
  32.5836089  17.1295031  31.0688928  31.9339600  18.0123886  30.0246948
  34.2730219  16.8757849  27.5851828  33.9380051  16.8358619  28.4809478
  33.7734165  16.2102565  27.1122238  28.2474463  12.2825479  33.1104409
  28.1094261  11.5505718  33.7115948  29.1579386  12.1934380  32.8288597
  37.2089410  14.2213884  17.8588888  36.5918581  13.4960712  17.7621940
  36.7405899  14.9823244  17.5155962  30.8756763  11.9945439  32.5988089
  31.5856382  11.3538631  32.5574707  30.8326072  12.2458334  33.5214270
  38.8643542  18.9312792  35.5194668  38.8056088  18.2472012  34.8525251
  39.2663061  19.6731782  35.0675294  29.5885697   8.9810657  34.4183728
  29.0523054   8.5301395  35.0705325  29.0002406   9.1156565  33.6754193
  28.9987956   8.4399308  16.9810192  28.1217423   8.3188109  16.6172439
  29.4745709   7.6485386  16.7289081  38.8660949  16.8952376  33.7508648
  37.9787728  16.5578298  33.8735047  39.4359500  16.1635407  33.9877413
  20.5190097  13.2276468  27.0751699  21.2061136  12.9138198  26.4872714
  20.3638225  14.1317832  26.8018951  25.3224819   8.1166664  31.5036723
  25.2383007   7.5092334  30.7687133  24.5007525   8.6075683  31.5046219
  35.4948533   6.6020228  26.8706918  35.9917232   5.8490190  26.5507988
  34.7235514   6.6384544  26.3050127  43.3478290  12.3060593  28.5125209
  43.3368166  13.1885309  28.1419143  42.4795669  11.9532144  28.3179746
  34.8560786  21.4540662  32.8728050  35.5688759  22.0888127  32.8003951
  34.3650815  21.5504528  32.0568051  36.5778313  15.3591915  24.4445341
  35.6434592  15.4793378  24.2750046  36.7554982  14.4564382  24.1805351
  32.0783501   8.7437611  26.5978602  31.7081289   8.1908651  27.2859508
  32.5742594   8.1395744  26.0453603  39.9650865  11.2009234  24.9795375
  40.4311317  12.0337226  24.9055678  40.4158365  10.7354216  25.6840634
  38.0327096  17.5453056  21.9781527  38.3086940  17.4309650  22.8875402
  37.1631594  17.1470540  21.9393701  37.9367527   3.5689821  29.0186277
  37.0230607   3.7994048  29.1868484  38.3660629   3.6528265  29.8700309
  37.7073986  11.7579713  31.5186171  37.0545436  12.0055621  30.8638624
  38.0854366  10.9443851  31.1848648  35.0023325  20.7207592  22.8829390
  35.5311092  20.2100046  22.2699552  35.2651545  20.4050122  23.7474923
  33.7561559  12.4999524  38.0052208  33.0802196  12.3993654  38.6754583
  34.5789193  12.3438738  38.4688205  20.0958073  11.3077061  29.3469166
  20.1342172  10.7740652  30.1406284  19.5898365  10.7812267  28.7280143
  27.4748835   6.1541602  32.8431709  27.5390161   7.0156433  32.4309106
  27.4115955   5.5415603  32.1104067  26.9501107   8.2264734  36.4904743
  27.5773146   7.8441811  37.1042267  26.0929026   8.0078936  36.8560435
  37.3495216  18.6327709  38.0958478  37.8935120  19.2457668  37.6013433
  36.7682061  19.1907288  38.6125491  23.7266650  10.0341163  22.4223098
  24.0220091   9.1251842  22.3690151  22.8254686  10.0128903  22.1004100
  27.2560897   8.1097160  28.4050646  26.5347483   8.7233128  28.2658120
  28.0454153   8.6454925  28.3267292  37.6987637  19.5557447  30.8553056
  36.7517973  19.4362799  30.7831383  38.0470411  18.6679945  30.9379318
  30.0587211   5.4451586  34.6791298  30.5821613   5.6913883  35.4417607
  29.8399544   6.2771621  34.2594435  25.4554492   7.7155261  22.5462423
  25.1267198   6.8352640  22.3637529  25.8093863   7.6602930  23.4338812
  28.5696315   8.0028231  22.9137901  28.9092387   8.5314152  22.1916509
  29.0168435   8.3408637  23.6896467  38.3068193  20.1738722  28.1422281
  39.2314740  19.9681584  28.0046732  38.1383496  19.9255124  29.0511623
  31.2639756   6.3865281  32.3640969  30.9236576   5.5873095  32.7661648
  30.5578762   6.6866992  31.7917802  31.9156228   3.4714594  30.8168292
  32.7382297   2.9975072  30.6947182  32.1594291   4.2505078  31.3166978
  30.5564462   6.5002852  21.1131193  31.2772825   6.8784105  20.6094910
  29.9329766   7.2191729  21.2166171  34.6995585   7.2048001  22.0489526
  34.9159199   8.0872639  21.7478354  34.2189652   6.8134215  21.3195168
  29.4394806  10.1633715  28.6260270  29.2939387  10.4774018  29.5184552
  28.9620010  10.7818615  28.0731169  31.2991189   7.1536262  28.6741160
  31.2852758   6.2577356  28.3373458  32.0163617   7.1606926  29.3079446
  33.1517320   7.5873603  30.7194287  32.8935098   8.5090673  30.7178618
  32.6202360   7.1904037  31.4094751  38.0963509  20.6924390  23.4984373
  38.2700386  20.1270812  22.7458225  38.5892400  21.4925285  23.3163863
  23.9140469  12.7039059  31.5647931  23.3693937  13.4798867  31.6968206
  24.7919818  13.0509863  31.4067053  30.7028085   6.0350643  23.9428730
  30.8243996   5.1067289  24.1419617  30.4130128   6.0489329  23.0307045
  33.5719276   3.7205553  27.0795450  33.5940972   3.7844886  26.1247429
  33.9887335   2.8810062  27.2735956  43.9502900  13.4560813  25.1174672
  44.3934046  12.7068138  24.7193796  43.0729410  13.4470949  24.7348404
  39.0838681  20.0091154  20.5981271  39.7789586  20.6297847  20.8168585
  39.4261831  19.1586505  20.8733649  24.7006490  11.8308955  34.4578088
  23.9588226  11.9791591  35.0442719  24.3799235  12.0917221  33.5944838
  40.9830104  17.4590860  22.1268602  41.5081428  17.7978133  21.4017922
  40.8952457  16.5237875  21.9431736  32.6450153  21.3724933  34.2558478
  32.9537279  21.1274080  35.1281178  33.4425635  21.5771572  33.7677348
  23.3471709  17.6360710  27.4477416  22.5103617  17.2082885  27.2661418
  23.3195355  17.8293154  28.3848208  30.1869165   7.5482640  38.1518663
  30.2357320   8.4244763  37.7696432  30.7291679   7.0060033  37.5790306
  40.6724010  18.0923763  37.4319800  39.8819554  18.0747902  36.8924299
  40.4357365  18.6312057  38.1868836  40.7921885  14.9416230  34.7452528
  40.8419890  14.7766237  35.6868051  40.6835809  14.0743489  34.3550409
  29.6758144  17.6204775  22.0344617  29.8246265  18.3040240  21.3811290
  30.4824588  17.6009866  22.5494073  38.0825648  10.9247158  36.0611835
  38.9835511  10.7853623  35.7695833  38.1573622  11.0901613  37.0010012
  32.4168453   8.3014013  34.9065021  31.5471763   8.5947579  34.6347610
  32.6527934   8.8854458  35.6272285  42.2940082  17.3613171  34.9894550
  42.0024891  17.7243152  35.8258011  41.6812214  16.6480180  34.8107882
  43.4935765  14.9266051  27.5097120  44.3282656  15.3655855  27.6734680
  43.6294893  14.4504704  26.6905366  40.5427271  12.4845786  33.4574608
  41.0181392  12.6773432  32.6493459  39.6192836  12.5404972  33.2117991
  35.1207487   4.5193629  32.4230442  35.6389431   5.2554656  32.0976930
  34.7662620   4.8257623  33.2577201  26.7006425   9.3798311  20.5391847
  26.0075670   9.4542666  19.8831883  26.4558177   8.6158654  21.0613364
  33.1753550  20.1152906  19.5056364  32.6027517  20.7343093  19.0526836
  33.7486343  20.6652268  20.0396286  39.2428940   9.3611546  31.6902913
  40.1946362   9.4609644  31.7115137  39.0732390   8.5689815  32.2000998
  37.2643319   6.4467129  31.8762314  36.6693251   6.7272142  31.1808803
  36.9793016   6.9361030  32.6479055  36.3950809  20.3990056  20.6364947
  37.3281483  20.3335618  20.8397822  36.3074022  21.2346323  20.1779479
  39.0238826  19.7155926  17.5968894  38.9452458  19.3815790  18.4904652
  39.8448493  20.2077694  17.5960367  41.7217017  12.5817666  30.8045213
  41.6893337  11.6433666  30.9904897  42.3317641  12.6601702  30.0711038
  33.5600348  11.4513719  16.8472417  34.5059453  11.3219927  16.9160835
  33.1814593  10.7128381  17.3241845  41.8711506   9.3728709  30.8503496
  41.3550554   8.5887166  30.6633425  42.7551454   9.0447426  31.0150016
  47.5393567  13.6433673  29.9451250  48.2696956  13.3818961  30.5058953
  46.9300513  12.9062394  29.9853318  45.6208864  11.7841535  30.5425701
  44.8942028  11.6497500  29.9342192  45.2056151  12.0918364  31.3482419
  33.4439041  15.5031465  38.3073074  34.3642050  15.6810064  38.5013120
  33.4088624  14.5587510  38.1552773  31.7443265   9.3763695  16.7827302
  30.8374721   9.0796808  16.8590016  32.0219246   9.0793513  15.9161588
  22.6621206  10.6970058  27.2326349  22.3423990   9.8435367  26.9400723
  22.1154634  10.9118637  27.9884316  26.4401113  13.4132499  30.9495855
  26.6587123  14.3449607  30.9683889  26.8526887  13.0540474  31.7350659
  33.3605331   3.9200585  22.9371543  32.5506059   3.5747670  23.3126790
  34.0489748   3.6108128  23.5259155  35.2895879   2.9978632  24.5595840
  35.8426918   3.4174085  25.2185863  35.5265966   2.0714380  24.6018796
  31.3128979   8.9865705  40.3398604  31.2125705   9.9360062  40.2710695
  31.0950521   8.6583944  39.4674674  30.5142050   6.2350630  16.9239281
  31.3761214   6.5605529  17.1835099  30.6992394   5.4482126  16.4112347
  22.5309466  14.3172970  29.2019470  21.8372937  13.9026923  28.6889425
  23.2782457  14.3593506  28.6052889  38.6674686   5.1079157  24.0674504
  38.0873355   5.7663961  23.6852557  38.4010619   4.2856501  23.6561922
  37.1178253   4.5084214  26.2695825  37.6178031   4.6200749  25.4610144
  37.7613861   4.2045267  26.9096633  31.1760249  12.4162844  39.1563666
  30.6927330  13.2163204  39.3627555  31.2621188  12.4270789  38.2031110
  24.4446208  14.2491224  27.0785485  24.4216896  14.3478911  26.1267368
  24.7546845  15.0956375  27.4002651  27.1033586  16.3067379  31.1932099
  28.0576840  16.2751321  31.1262031  26.9046110  15.8458002  32.0082325
  27.6932968  14.8768495  33.7602897  28.5125857  15.3712573  33.7837734
  27.9669776  13.9600463  33.7320465  37.4499564   7.2679247  23.1230853
  36.5625419   7.5528898  22.9051047  37.8653554   7.1073010  22.2758130
  40.8014101   7.2925768  26.8385192  41.5774491   7.7822221  27.1109809
  40.0762235   7.7183822  27.2957061  43.2386659   8.0053387  27.8959132
  43.8331150   7.7649123  27.1852441  43.3113243   7.2860518  28.5232669
  36.5942778  17.0323922  17.2178873  37.2978628  17.2373924  17.8336528
  35.8705427  17.6000684  17.4827956  37.4240588  12.7833783  23.3381143
  37.3675790  13.2402334  22.4988775  37.9768931  12.0224468  23.1603986
  41.2345394   8.5723515  24.1631262  40.9782328   8.1720151  24.9939470
  40.6098262   9.2867309  24.0381401  45.5457732  11.3119588  26.6702554
  44.9857290  11.3812777  27.4434116  44.9401235  11.1360573  25.9502050
  38.5029475  17.4706451  19.2677333  39.3375079  17.0387649  19.0854807
  38.3413818  17.2988465  20.1954227  38.1575368  13.9738564  20.6333672
  38.1024171  13.8082836  19.6922116  37.5321423  14.6814597  20.7895862
  22.9467882   9.2106629  34.4595094  23.5926746   8.7005583  34.9482319
  22.7385034   9.9475310  35.0338519  35.4721275  16.2787476  39.9587235
  36.3412434  16.4528128  39.5973870  34.9928026  17.0981893  39.8362964
  31.4671493   3.4746673  20.2118990  31.4550163   4.4188513  20.3687261
  32.3594915   3.2916819  19.9178452  27.2865373   6.3574246  38.5570108
  28.1496835   6.0011051  38.7673433  26.7130784   6.0188141  39.2445513
  47.1313750  27.9876102  29.3632509  47.7692160  27.8682849  28.6595849
  47.0134593  28.9356946  29.4220462  43.9403457  27.9403530  29.2994034
  43.6021968  27.8244595  28.4114569  44.8093225  27.5394695  29.2795040
  39.7990272  29.7939007  25.2890925  39.2355138  29.7028944  24.5207213
  39.6842667  28.9738911  25.7693418  44.4223240  29.0938382  35.2580240
  44.4111880  28.6991180  34.3860743  44.5843879  28.3604455  35.8514011
  45.3789831  33.4609974  20.6005390  44.7277811  34.0464055  20.2139404
  46.1734194  33.9916169  20.6600427  39.3045458  30.5499111  20.9992524
  40.0776334  30.0028099  20.8605400  39.6570857  31.4143361  21.2106986
  41.1430501  31.8775494  34.2059424  40.8520367  32.7821125  34.0906090
  41.7787485  31.9192021  34.9203493  42.0686708  29.2552342  30.7960783
  42.6650280  29.0308365  30.0817746  42.1261679  28.5137088  31.3986231
  41.6411736  26.7091778  18.6310974  41.8937257  26.1873299  17.8694437
  40.7036295  26.5457923  18.7337658  46.6855019  25.7127556  26.4385717
  47.4718108  25.2946979  26.0876134  46.9493723  26.6173648  26.6067366
  46.8565096  31.1500406  21.1374374  46.2210929  31.2235033  21.8495279
  46.5262503  31.7394005  20.4593453  52.0863446  25.6502789  27.3418696
  52.8188618  25.0802006  27.5756525  51.3302802  25.2624390  27.7825202
  41.3608025  28.6119884  20.8335349  41.2444283  27.9364787  21.5016433
  41.4710285  28.1252257  20.0167502  43.7039566  28.0730031  24.5382038
  43.3397773  27.5460652  25.2494960  44.5606682  27.6828500  24.3648524
  49.6088866  19.3624363  31.8013305  49.2772191  20.2319774  31.5774520
  49.0134480  19.0460647  32.4807335  43.3445053  23.1019930  19.5343387
  43.5119455  23.9700167  19.9013858  43.1542222  23.2647212  18.6104676
  46.1020386  31.5636909  31.2009217  45.8021109  32.4661948  31.0925025
  45.7571445  31.2969092  32.0530370  39.5532867  28.0150706  27.2345922
  38.6283364  27.8826920  27.4423613  39.8017281  28.7944925  27.7315864
  49.5017530  24.0819449  28.8806655  48.5934407  24.0134858  28.5865416
  49.4505125  24.5591394  29.7088480  43.3234274  25.5577588  20.5190054
  43.2033899  26.0034639  21.3575534  42.6286862  25.9062906  19.9603592
  36.9141678  27.6583980  28.0689711  37.0434060  27.9118459  28.9829122
  36.2339130  28.2511688  27.7494366  41.0841166  38.3281230  24.1680185
  41.0065195  39.2789055  24.2468666  40.4802809  37.9827102  24.8255111
  43.5758395  25.5009095  36.8241552  42.7991730  26.0603015  36.8144417
  44.2148959  25.9865878  37.3456422  51.3679176  22.2835888  30.6584529
  50.7253556  22.5768421  30.0124323  50.8634105  22.1688808  31.4637725
  49.0219340  26.0299061  21.3470388  49.9337196  26.2626448  21.1718085
  48.5128987  26.6136105  20.7845466  41.8304768  28.3094548  36.3859519
  42.5719452  28.8479592  36.1094342  41.1241753  28.9360837  36.5431071
  47.3060107  30.4523689  34.9831680  47.7143463  30.0106099  34.2386313
  46.5837369  29.8776316  35.2365873  43.6591177  25.3896296  32.3565237
  44.5052373  25.8135709  32.4999886  43.5989815  24.7329920  33.0503800
  47.6288922  31.0124879  28.7383969  46.9997785  31.1770594  28.0360037
  47.2414584  31.4266489  29.5094933  51.5078154  31.9479317  26.0928333
  50.8229192  32.3278219  25.5425366  51.5922003  32.5574644  26.8260281
  46.8090623  23.0500664  34.0146411  46.5651555  23.8042724  33.4780687
  47.0850553  23.4286012  34.8493658  48.7629086  29.5939276  32.6923677
  48.9745981  30.2371036  32.0158058  48.7158834  28.7601593  32.2245607
  46.3655315  22.2057097  29.5960249  45.5039794  22.5038351  29.8876986
  46.3917749  22.4227496  28.6641281  43.1816884  30.7499288  26.0034054
  43.6455229  31.0286991  25.2138677  42.9173682  29.8482732  25.8207145
  40.0740965  30.2970769  28.9413818  40.6442322  30.7258037  28.3031302
  40.6649077  30.0153354  29.6398003  42.1185770  26.8722440  22.8123619
  42.8209813  27.3243484  23.2797546  41.7866399  26.2306259  23.4403513
  40.5666132  25.4634197  37.1874829  39.9364792  26.1450477  37.4210226
  40.4602219  25.3517278  36.2427967  49.8774914  32.4711232  30.8646034
  50.6992357  32.0691419  30.5828716  49.8737316  32.3679466  31.8162150
  37.8125849  25.4950572  25.0724230  37.0157013  25.6069266  25.5907725
  37.5851442  25.8337224  24.2065120  43.6431517  32.0195275  33.0206744
  43.7075949  32.4815682  33.8564916  42.9342441  31.3892640  33.1489054
  43.3579535  33.6863383  22.8885725  43.2225209  34.5314918  23.3170573
  43.8989347  33.8882660  22.1251659  39.8446874  19.7654962  39.5500080
  39.4513820  19.2121161  40.2247724  40.6613015  20.0765541  39.9406597
  42.7614835  21.1812841  37.1420336  43.5024549  21.7819995  37.0624799
  42.9932758  20.4390479  36.5838379  37.9056173  26.3669209  35.4198566
  37.7909688  25.4654466  35.7205665  37.0500691  26.6132906  35.0683383
  44.9848011  34.3086949  37.0186067  44.5411865  33.5223328  36.7006971
  45.6465225  34.4966100  36.3529958  39.7435132  35.8382751  31.5446745
  40.2942557  35.7099814  30.7723739  38.9046608  36.1377640  31.1941638
  47.0829249  34.5889749  35.0467468  47.0647724  35.4098630  34.5547737
  48.0049169  34.4643824  35.2717609  43.5402303  32.1033878  35.8890976
  44.0730640  31.3422167  35.6590284  43.0116384  31.8107530  36.6315131
  46.7071998  17.2093944  31.4184618  46.3636268  18.0995586  31.3423729
  47.0750961  17.0195602  30.5554203  46.6722281  27.2002556  19.9257053
  46.1568904  27.9707160  20.1645441  46.3999589  26.5267692  20.5490115
  44.2569392  22.0452256  24.9842292  43.4010988  21.6559107  24.8047930
  44.6696344  22.1244217  24.1242077  45.7868539  19.5798600  29.3833851
  45.2833334  19.5428735  28.5701657  46.0799145  20.4891342  29.4430508
  42.0311424  19.6637329  28.3900033  42.8964421  19.4680138  28.0305923
  42.0988933  19.4347681  29.3169390  51.6456555  29.9534910  21.8610227
  50.8685998  29.6146070  21.4165389  52.3248036  29.9587533  21.1865192
  46.4608584  25.0729648  21.7516834  46.1558720  25.3875797  22.6026978
  47.4139026  25.1511068  21.7944167  44.9055016  31.2319871  23.4009788
  44.3776378  30.4972631  23.0883026  44.4042519  32.0094547  23.1549757
  49.8847862  29.4268891  28.5176835  49.2271536  30.1168153  28.6056963
  50.6888261  29.8165323  28.8610821  39.6373744  21.8939537  25.7616400
  40.2117495  21.6714719  25.0289593  40.2244726  21.9628232  26.5145001
  48.6953321  27.7813264  26.5680776  49.2085203  28.4143256  27.0702486
  49.3454545  27.1814460  26.2024137  39.9643331  23.9243998  19.7812285
  39.1280643  24.2618685  20.1021560  39.8248100  23.7892978  18.8439422
  41.9396411  18.7680786  24.4891469  41.2860824  18.4529803  23.8648084
  41.8976885  18.1456527  25.2151292  43.0507616  29.0500081  16.4044761
  42.1434678  28.8189335  16.6035910  43.5478648  28.2537700  16.5918743
  45.9575695  37.7597588  19.3241448  45.2837394  38.0629285  19.9326405
  46.3441517  38.5626669  18.9746905  45.1734152  25.2562720  28.8139117
  44.2556713  25.4777667  28.6560805  45.5894295  25.3309030  27.9550824
  45.9569199  26.6554135  23.9441797  46.7041018  27.1675533  23.6348919
  46.2260789  26.3338188  24.8046191  44.2295850  29.1512676  20.9268752
  43.3207069  28.8671709  21.0241221  44.2590933  29.5711755  20.0672058
  49.4615117  32.7619266  24.6959919  49.0077444  31.9210175  24.7525110
  48.8309084  33.3980664  25.0334699  48.4048037  23.6911252  25.9260587
  47.6670793  23.1788638  26.2570829  48.6574810  23.2511633  25.1143863
  47.9048056  34.5995762  25.6309737  48.1971031  35.1600819  24.9122103
  48.4146677  34.8924323  26.3862896  48.5059664  16.4687504  26.5202356
  48.8118541  15.6084867  26.2328271  49.2312269  17.0605124  26.3201350
  42.7780744  26.7641297  27.0278547  42.8329353  25.8115133  26.9521023
  41.9671946  26.9200736  27.5119845  43.9271937  30.6921420  18.2656830
  43.4891367  29.9757279  17.8062467  44.6682378  30.9197535  17.7041922
  40.7173104  25.3818356  24.7868926  39.9040969  25.6812527  25.1934118
  41.2132098  24.9874045  25.5043408  42.8681681  35.3776113  26.7203190
  42.8257860  35.6036960  25.7911722  43.7844380  35.1439488  26.8688992
  46.3147315  25.8460181  33.6183820  46.6696703  26.0731654  34.4778285
  46.9619446  26.1778558  32.9961075  52.0445052  28.9678617  24.3233149
  51.9062951  29.1580213  23.3954338  51.6881271  29.7298000  24.7801200
  40.2087178  22.9536712  30.4030161  40.8486558  22.8125471  29.7053124
  39.3764709  22.6671225  30.0268763  52.0714432  31.0355144  29.3344420
  52.5050938  30.9430433  30.1827474  52.7846012  31.0112644  28.6964436
  40.9847482  32.2539142  26.5165153  41.7788081  31.7589463  26.3147728
  40.2739175  31.7257006  26.1532859  45.8042327  34.6357238  30.8677521
  45.8579349  35.2048174  31.6355237  44.9357108  34.8059123  30.5031558
  37.2930246  26.3982224  22.5924906  36.3627834  26.3366680  22.8094868
  37.3887718  25.8758177  21.7961547  37.2115795  22.9237037  25.1803148
  37.4722612  23.8382370  25.0712308  38.0332967  22.4561480  25.3299760
  38.6840720  24.3374794  32.3501972  39.3563773  24.1292156  31.7014621
  37.8570507  24.1396880  31.9107204  52.9329981  31.0778844  31.8677306
  53.1265871  31.9824655  32.1136581  52.8330599  30.6186264  32.7015891
  44.5866292  20.9636735  34.3667633  43.9394207  21.6626685  34.2732109
  45.3567307  21.3972879  34.7343881  47.9945090  31.2285587  37.4418186
  47.8430596  30.9996139  36.5248270  47.9849769  32.1856189  37.4549531
  44.7630426  28.8017500  32.4264453  45.6922486  28.9528660  32.2533420
  44.3421456  28.8901521  31.5713099  43.5618758  32.8268164  30.1962990
  43.4229844  32.4586949  31.0688928  42.7733354  33.3415804  30.0246948
  44.1566910  37.9277261  21.5388527  44.3318666  37.4565304  22.3534149
  43.4699698  38.5543027  21.7669788  45.1123973  32.2049767  27.5851828
  44.7773806  32.1650537  28.4809478  44.6127919  31.5394483  27.1122238
  39.0868217  27.6117397  33.1104409  38.9488015  26.8797636  33.7115948
  39.9973141  27.5226297  32.8288597  48.0483165  29.5505801  17.8588888
  47.4312336  28.8252630  17.7621940  47.5799653  30.3115162  17.5155962
  41.7150518  27.3237356  32.5988089  42.4250136  26.6830549  32.5574707
  41.6719826  27.5750251  33.5214270  49.7037297  34.2604710  35.5194668
  49.6449843  33.5763930  34.8525251  50.1056815  35.0023700  35.0675294
  40.4279452  24.3102574  34.4183728  39.8916809  23.8593313  35.0705325
  39.8396160  24.4448483  33.6754193  38.7227995  41.0766624  28.3128387
  38.9624594  41.7085148  28.9907406  37.8797192  40.7254664  28.5993746
  39.8381711  23.7691226  16.9810192  38.9611177  23.6480026  16.6172439
  40.3139464  22.9777304  16.7289081  49.7054704  32.2244294  33.7508648
  48.8181483  31.8870215  33.8735047  50.2753255  31.4927325  33.9877413
  43.2355857  36.8845746  30.7169891  43.1626029  37.6900718  31.2289196
  42.7933250  37.0837712  29.8917912  43.0245637  36.1217516  24.2272713
  42.2413159  36.6639196  24.3210937  43.7238382  36.6391496  24.6266954
  46.3342287  21.9312146  26.8706918  46.8310987  21.1782108  26.5507988
  45.5629269  21.9676462  26.3050127  54.1872044  27.6352511  28.5125209
  54.1761921  28.5177226  28.1419143  53.3189424  27.2824062  28.3179746
  45.6954541  36.7832580  32.8728050  46.4082513  37.4180045  32.8003951
  45.2044569  36.8796446  32.0568051  47.4172068  30.6883833  24.4445341
  46.4828346  30.8085295  24.2750046  47.5948736  29.7856300  24.1805351
  42.9177256  24.0729529  26.5978602  42.5475043  23.5200569  27.2859508
  43.4136348  23.4687662  26.0453603  50.8044619  26.5301152  24.9795375
  51.2705071  27.3629144  24.9055678  51.2552120  26.0646134  25.6840634
  40.7466454  34.5327024  33.6933620  41.4475914  35.1663506  33.8463015
  40.2761569  34.8741755  32.9329260  48.8720850  32.8744973  21.9781527
  49.1480694  32.7601568  22.8875402  48.0025349  32.4762458  21.9393701
  48.7761282  18.8981739  29.0186277  47.8624362  19.1285966  29.1868484
  49.2054383  18.9820183  29.8700309  48.5467740  27.0871631  31.5186171
  47.8939191  27.3347538  30.8638624  48.9248120  26.2735769  31.1848648
  45.5074914  37.1231324  25.6214341  45.6897309  36.3052980  26.0842093
  46.3307900  37.3399016  25.1839231  45.8417080  36.0499509  22.8829390
  46.3704846  35.5391964  22.2699552  46.1045299  35.7342039  23.7474923
  44.5955313  27.8291442  38.0052208  43.9195950  27.7285571  38.6754583
  45.4182947  27.6730656  38.4688205  39.1972828  37.1014626  25.6427166
  38.5283203  37.5860754  25.1591206  39.0585697  37.3483846  26.5570544
  43.3378096  39.1358369  32.2409824  43.8896404  39.2989991  33.0058909
  43.6784290  39.7262807  31.5689849  38.3142589  21.4833519  32.8431709
  38.3783916  22.3448350  32.4309106  38.2509710  20.8707521  32.1104067
  37.7894862  23.5556652  36.4904743  38.4166901  23.1733729  37.1042267
  36.9322781  23.3370854  36.8560435  48.1888971  33.9619627  38.0958478
  48.7328875  34.5749585  37.6013433  47.6075815  34.5199205  38.6125491
  34.5660405  25.3633081  22.4223098  34.8613846  24.4543759  22.3690151
  33.6648440  25.3420820  22.1004100  46.4746483  37.0840345  29.2273506
  46.3497623  36.2830085  28.7184452  47.1325575  37.5786538  28.7387476
  48.5381392  34.8849365  30.8553056  47.5911727  34.7654716  30.7831383
  48.8864165  33.9971863  30.9379318  40.8980965  20.7743504  34.6791298
  41.4215367  21.0205801  35.4417607  40.6793299  21.6063539  34.2594435
  36.2948246  23.0447179  22.5462423  35.9660952  22.1644558  22.3637529
  36.6487617  22.9894847  23.4338812  45.5427825  34.6802081  27.0557408
  45.3952788  33.7518789  27.2364978  46.3681319  34.7022172  26.5714484
  39.4090069  23.3320148  22.9137901  39.7486142  23.8606070  22.1916509
  39.8562190  23.6700555  23.6896467  49.1461947  35.5030640  28.1422281
  50.0708494  35.2973501  28.0046732  48.9777250  35.2547041  29.0511623
  42.1033510  21.7157199  32.3640969  41.7630331  20.9165012  32.7661648
  41.3972517  22.0158910  31.7917802  42.7549982  18.8006512  30.8168292
  43.5776051  18.3266990  30.6947182  42.9988046  19.5796995  31.3166978
  41.3958217  21.8294770  21.1131193  42.1166579  22.2076023  20.6094910
  40.7723521  22.5483647  21.2166171  45.5389339  22.5339919  22.0489526
  45.7552954  23.4164557  21.7478354  45.0583407  22.1426132  21.3195168
  40.2788561  25.4925632  28.6260270  40.1333142  25.8065935  29.5184552
  39.8013765  26.1110533  28.0731169  42.1384944  22.4828180  28.6741160
  42.1246513  21.5869273  28.3373458  42.8557372  22.4898844  29.3079446
  43.9911074  22.9165520  30.7194287  43.7328852  23.8382591  30.7178618
  43.4596115  22.5195955  31.4094751  48.9357263  36.0216307  23.4984373
  49.1094141  35.4562730  22.7458225  49.4286154  36.8217202  23.3163863
  34.7534223  28.0330977  31.5647931  34.2087691  28.8090785  31.6968206
  35.6313573  28.3801781  31.4067053  41.5421840  21.3642560  23.9428730
  41.6637751  20.4359207  24.1419617  41.2523882  21.3781246  23.0307045
  44.4113030  19.0497471  27.0795450  44.4334727  19.1136804  26.1247429
  44.8281089  18.2101980  27.2735956  54.7896654  28.7852730  25.1174672
  55.2327800  28.0360056  24.7193796  53.9123165  28.7762867  24.7348404
  49.9232436  35.3383072  20.5981271  50.6183340  35.9589765  20.8168585
  50.2655586  34.4878423  20.8733649  35.5400245  27.1600873  34.4578088
  34.7981981  27.3083508  35.0442719  35.2192989  27.4209138  33.5944838
  51.8223859  32.7882777  22.1268602  52.3475183  33.1270050  21.4017922
  51.7346211  31.8529793  21.9431736  43.4843908  36.7016851  34.2558478
  43.7931034  36.4565998  35.1281178  44.2819390  36.9063490  33.7677348
  43.5064520  38.8554761  26.4863855  43.0669510  38.3631139  27.1796712
  44.2572637  38.3127728  26.2455930  40.9538392  34.3992770  28.5586156
  40.3318401  33.7363475  28.2588384  41.6243259  34.4253902  27.8759804
  41.0262919  22.8774558  38.1518663  41.0751075  23.7536681  37.7696432
  41.5685433  22.3351951  37.5790306  51.5117765  33.4215681  37.4319800
  50.7213309  33.4039820  36.8924299  51.2751119  33.9603975  38.1868836
  51.6315640  30.2708147  34.7452528  51.6813645  30.1058155  35.6868051
  51.5229563  29.4035406  34.3550409  40.5151899  32.9496693  22.0344617
  40.6640019  33.6332158  21.3811290  41.3218342  32.9301783  22.5494073
  48.9219402  26.2539075  36.0611835  49.8229265  26.1145540  35.7695833
  48.9967377  26.4193530  37.0010012  43.2562208  23.6305930  34.9065021
  42.3865517  23.9239496  34.6347610  43.4921688  24.2146375  35.6272285
  53.1333837  32.6905089  34.9894550  52.8418645  33.0535070  35.8258011
  52.5205968  31.9772097  34.8107882  54.3329519  30.2557969  27.5097120
  55.1676410  30.6947773  27.6734680  54.4688648  29.7796622  26.6905366
  51.3821025  27.8137704  33.4574608  51.8575147  28.0065350  32.6493459
  50.4586590  27.8696889  33.2117991  38.2704532  28.9761871  23.0405686
  38.0250574  28.0724201  23.2385896  38.4400446  28.9779021  22.0985164
  45.9601242  19.8485547  32.4230442  46.4783185  20.5846574  32.0976930
  45.6056374  20.1549540  33.2577201  37.5400179  24.7090228  20.5391847
  36.8469424  24.7834583  19.8831883  37.2951931  23.9450572  21.0613364
  46.2113836  16.2685830  27.9431338  46.4915589  15.6009019  28.5691765
  46.9964443  16.4614925  27.4306002  44.0147304  35.4444824  19.5056364
  43.4421271  36.0635011  19.0526836  44.5880098  35.9944185  20.0396286
  50.0822694  24.6903464  31.6902913  51.0340117  24.7901561  31.7115137
  49.9126144  23.8981732  32.2000998  48.1037073  21.7759047  31.8762314
  47.5087006  22.0564060  31.1808803  47.8186770  22.2652948  32.6479055
  47.2344564  35.7281974  20.6364947  48.1675237  35.6627535  20.8397822
  47.1467777  36.5638241  20.1779479  49.8632581  35.0447844  17.5968894
  49.7846212  34.7107708  18.4904652  50.6842247  35.5369612  17.5960367
  52.5610772  27.9109583  30.8045213  52.5287092  26.9725584  30.9904897
  53.1711395  27.9893620  30.0711038  44.3994103  26.7805636  16.8472417
  45.3453207  26.6511844  16.9160835  44.0208348  26.0420298  17.3241845
  52.7105260  24.7020627  30.8503496  52.1944309  23.9179083  30.6633425
  53.5945209  24.3739343  31.0150016  50.3715987  18.4461642  26.8099309
  50.1740808  18.1376731  27.6942641  50.9815693  19.1723281  26.9397239
  44.2832795  30.8323382  38.3073074  45.2035805  31.0101981  38.5013120
  44.2482378  29.8879428  38.1552773  42.5837020  24.7055613  16.7827302
  41.6768475  24.4088725  16.8590016  42.8613001  24.4085431  15.9161588
  37.2794868  28.7424417  30.9495855  37.4980878  29.6741525  30.9683889
  37.6920642  28.3832392  31.7350659  44.1999086  19.2492502  22.9371543
  43.3899814  18.9039587  23.3126790  44.8883502  18.9400046  23.5259155
  46.1289634  18.3270549  24.5595840  46.6820672  18.7466003  25.2185863
  46.3659720  17.4006297  24.6018796  42.1522733  24.3157623  40.3398604
  42.0519460  25.2651980  40.2710695  41.9344275  23.9875862  39.4674674
  41.3535804  21.5642548  16.9239281  42.2154968  21.8897446  17.1835099
  41.5386149  20.7774044  16.4112347  49.5068441  20.4371074  24.0674504
  48.9267110  21.0955878  23.6852557  49.2404374  19.6148419  23.6561922
  47.9572007  19.8376132  26.2695825  48.4571786  19.9492667  25.4610144
  48.6007615  19.5337185  26.9096633  42.0154003  27.7454762  39.1563666
  41.5321085  28.5455122  39.3627555  42.1014942  27.7562707  38.2031110
  38.5326723  30.2060412  33.7602897  39.3519612  30.7004491  33.7837734
  38.8063530  29.2892381  33.7320465  48.2893319  22.5971165  23.1230853
  47.4019174  22.8820815  22.9051047  48.7047308  22.4364928  22.2758130
  51.6407855  22.6217686  26.8385192  52.4168245  23.1114138  27.1109809
  50.9155989  23.0475740  27.2957061  54.0780414  23.3345305  27.8959132
  54.6724905  23.0941041  27.1852441  54.1506997  22.6152436  28.5232669
  47.4336532  32.3615839  17.2178873  48.1372383  32.5665842  17.8336528
  46.7099181  32.9292601  17.4827956  48.2634343  28.1125701  23.3381143
  48.2069544  28.5694252  22.4988775  48.8162685  27.3516385  23.1603986
  52.0739149  23.9015433  24.1631262  51.8176083  23.5012068  24.9939470
  51.4492017  24.6159227  24.0381401  39.4546695  38.0748233  28.4220740
  39.3379079  39.0193665  28.3199430  38.6339142  37.7721794  28.8106539
  49.3423230  32.7998369  19.2677333  50.1768834  32.3679567  19.0854807
  49.1807573  32.6280382  20.1954227  48.9969122  29.3030482  20.6333672
  48.9417926  29.1374753  19.6922116  48.3715177  30.0106515  20.7895862
  33.7861637  24.5398546  34.4595094  34.4320501  24.0297500  34.9482319
  33.5778788  25.2767228  35.0338519  46.3115029  31.6079394  39.9587235
  47.1806189  31.7820046  39.5973870  45.8321781  32.4273811  39.8362964
  42.3065247  18.8038591  20.2118990  42.2943917  19.7480431  20.3687261
  43.1988669  18.6208736  19.9178452  40.4801209  38.7276495  31.6376668
  41.3828456  38.7600105  31.9543163  40.2538579  37.7976946  31.6523004
  42.2354811  37.4807481  28.2986747  41.2850442  37.4809343  28.1851119
  42.5387298  36.7340216  27.7822782  46.1217367  15.3981368  24.4664927
  45.3549763  14.8439854  24.6121610  46.5328072  15.4703236  25.3279079
  38.1259128  21.6866163  38.5570108  38.9890590  21.3302968  38.7673433
  37.5524539  21.3480058  39.2445513  50.6384027  45.1230924  25.2890925
  50.0748892  45.0320861  24.5207213  50.5236422  44.3030829  25.7693418
  55.2616994  44.4230300  35.2580240  55.2505635  44.0283098  34.3860743
  55.4237634  43.6896372  35.8514011  48.1848459  46.6182116  28.1275145
  48.9769751  46.2772941  27.7121445  48.4245109  46.7277091  29.0477299
  50.1439213  45.8791029  20.9992524  50.9170089  45.3320016  20.8605400
  50.4964612  46.7435278  21.2106986  51.9824255  47.2067411  34.2059424
  51.6914121  48.1113042  34.0906090  52.6181240  47.2483939  34.9203493
  52.9080462  44.5844260  30.7960783  53.5044034  44.3600282  30.0817746
  52.9655434  43.8429005  31.3986231  52.4805491  42.0383695  18.6310974
  52.7331011  41.5165217  17.8694437  51.5430050  41.8749841  18.7337658
  52.2001779  43.9411801  20.8335349  52.0838037  43.2656705  21.5016433
  52.3104039  43.4544175  20.0167502  54.5433320  43.4021948  24.5382038
  54.1791527  42.8752569  25.2494960  55.4000436  43.0120417  24.3648524
  54.1838807  38.4311848  19.5343387  54.3513210  39.2992084  19.9013858
  53.9935976  38.5939130  18.6104676  50.3926622  43.3442624  27.2345922
  49.4677118  43.2118838  27.4423613  50.6411035  44.1236843  27.7315864
  54.1628028  40.8869506  20.5190054  54.0427653  41.3326556  21.3575534
  53.4680616  41.2354823  19.9603592  47.7535433  42.9875897  28.0689711
  47.8827814  43.2410376  28.9829122  47.0732884  43.5803605  27.7494366
  54.4152150  40.8301013  36.8241552  53.6385484  41.3894933  36.8144417
  55.0542713  41.3157796  37.3456422  52.6698522  43.6386466  36.3859519
  53.4113207  44.1771510  36.1094342  51.9635508  44.2652755  36.5431071
  54.4984932  40.7188213  32.3565237  55.3446127  41.1427627  32.4999886
  54.4383570  40.0621838  33.0503800  54.0210638  46.0791205  26.0034054
  54.4848984  46.3578908  25.2138677  53.7567437  45.1774650  25.8207145
  50.9134720  45.6262687  28.9413818  51.4836077  46.0549955  28.3031302
  51.5042831  45.3445271  29.6398003  52.9579525  42.2014358  22.8123619
  53.6603568  42.6535401  23.2797546  52.6260153  41.5598176  23.4403513
  51.4059886  40.7926114  37.1874829  50.7758547  41.4742395  37.4210226
  51.2995974  40.6809196  36.2427967  46.7004858  40.4597910  28.1140753
  45.9103912  40.7155439  27.6380864  47.1916106  41.2746248  28.2192794
  48.6519604  40.8242490  25.0724230  47.8550767  40.9361184  25.5907725
  48.4245196  41.1629142  24.2065120  54.4825271  47.3487193  33.0206744
  54.5469704  47.8107600  33.8564916  53.7736195  46.7184558  33.1489054
  44.9842561  40.7128401  30.5455744  45.2350600  41.5975411  30.8113320
  45.5202110  40.5333002  29.7730836  50.6840629  35.0946880  39.5500080
  50.2907574  34.5413079  40.2247724  51.5006769  35.4057459  39.9406597
  47.6502687  46.5330738  23.4613650  48.1627207  47.3273989  23.6119214
  48.3025399  45.8357029  23.3947251  49.4597571  49.6496495  25.5436403
  49.6364200  50.5714459  25.3557387  50.2554405  49.3354914  25.9730783
  53.6008590  36.5104759  37.1420336  54.3418303  37.1111912  37.0624799
  53.8326513  35.7682397  36.5838379  48.7449928  41.6961126  35.4198566
  48.6303443  40.7946384  35.7205665  47.8894446  41.9424823  35.0683383
  54.3796058  47.4325796  35.8890976  54.9124395  46.6714084  35.6590284
  53.8510139  47.1399448  36.6315131  45.6151603  44.8619393  24.2373220
  46.4526825  45.2716401  24.0206928  45.7929871  43.9218835  24.2073414
  55.0963146  37.3744174  24.9842292  54.2404743  36.9851024  24.8047930
  55.5090098  37.4536135  24.1242077  52.8705179  34.9929247  28.3900033
  53.7358176  34.7972056  28.0305923  52.9382688  34.7639599  29.3169390
  50.4767498  37.2231455  25.7616400  51.0511250  37.0006636  25.0289593
  51.0638480  37.2920149  26.5145001  50.8037085  39.2535916  19.7812285
  49.9674397  39.5910602  20.1021560  50.6641855  39.1184896  18.8439422
  52.7790166  34.0972704  24.4891469  52.1254578  33.7821721  23.8648084
  52.7370640  33.4748444  25.2151292  53.8901371  44.3791999  16.4044761
  52.9828432  44.1481252  16.6035910  54.3872403  43.5829618  16.5918743
  55.0689604  44.4804594  20.9268752  54.1600823  44.1963627  21.0241221
  55.0984688  44.9003672  20.0672058  45.6377774  42.2010108  24.9083954
  45.4402174  41.6079469  24.1835020  45.0824438  41.8962318  25.6259893
  53.6174498  42.0933214  27.0278547  53.6723108  41.1407051  26.9521023
  52.8065700  42.2492653  27.5119845  54.7665692  46.0213337  18.2656830
  54.3285122  45.3049196  17.8062467  55.5076133  46.2489452  17.7041922
  51.5566858  40.7110274  24.7868926  50.7434724  41.0104445  25.1934118
  52.0525852  40.3165963  25.5043408  51.0480933  38.2828630  30.4030161
  51.6880312  38.1417389  29.7053124  50.2158463  37.9963143  30.0268763
  51.8241237  47.5831060  26.5165153  52.6181835  47.0881380  26.3147728
  51.1132929  47.0548923  26.1532859  48.1324000  41.7274142  22.5924906
  47.2021588  41.6658597  22.8094868  48.2281472  41.2050095  21.7961547
  48.0509549  38.2528955  25.1803148  48.3116366  39.1674288  25.0712308
  48.8726722  37.7853397  25.3299760  49.5234475  39.6666712  32.3501972
  50.1957528  39.4584074  31.7014621  48.6964261  39.4688798  31.9107204
  54.4012513  48.1560082  30.1962990  54.2623598  47.7878866  31.0688928
  53.6127109  48.6707721  30.0246948  49.9261972  42.9409315  33.1104409
  49.7881770  42.2089554  33.7115948  50.8366895  42.8518215  32.8288597
  52.5544272  42.6529274  32.5988089  53.2643891  42.0122466  32.5574707
  52.5113581  42.9042169  33.5214270  51.2673206  39.6394492  34.4183728
  50.7310563  39.1885230  35.0705325  50.6789915  39.7740401  33.6754193
  50.6775465  39.0983143  16.9810192  49.8004932  38.9771944  16.6172439
  51.1533218  38.3069222  16.7289081  42.1977606  43.8860303  27.0751699
  42.8848645  43.5722033  26.4872714  42.0425734  44.7901668  26.8018951
  47.0012328  38.7750500  31.5036723  46.9170516  38.1676169  30.7687133
  46.1795034  39.2659518  31.5046219  53.7571010  39.4021446  26.5978602
  53.3868798  38.8492487  27.2859508  54.2530103  38.7979580  26.0453603
  47.1827927  49.3955296  30.6264723  47.7681364  48.6498984  30.7592627
  46.9852765  49.7059253  31.5101387  41.7745582  41.9660896  29.3469166
  41.8129681  41.4324487  30.1406284  41.2685874  41.4396102  28.7280143
  49.1536344  36.8125437  32.8431709  49.2177670  37.6740268  32.4309106
  49.0903464  36.1999439  32.1104067  48.6288616  38.8848570  36.4904743
  49.2560655  38.5025647  37.1042267  47.7716535  38.6662771  36.8560435
  45.4054159  40.6924999  22.4223098  45.7007600  39.7835677  22.3690151
  44.5042195  40.6712738  22.1004100  48.9348406  38.7680995  28.4050646
  48.2134992  39.3816963  28.2658120  49.7241662  39.3038760  28.3267292
  51.7374720  36.1035422  34.6791298  52.2609122  36.3497718  35.4417607
  51.5187053  36.9355456  34.2594435  47.1342001  38.3739096  22.5462423
  46.8054707  37.4936475  22.3637529  47.4881371  38.3186765  23.4338812
  50.2483824  38.6612066  22.9137901  50.5879896  39.1897987  22.1916509
  50.6955944  38.9992472  23.6896467  52.9427265  37.0449117  32.3640969
  52.6024085  36.2456930  32.7661648  52.2366271  37.3450828  31.7917802
  53.5943737  34.1298429  30.8168292  54.4169806  33.6558907  30.6947182
  53.8381800  34.9088913  31.3166978  52.2351971  37.1586688  21.1131193
  52.9560334  37.5367940  20.6094910  51.6117275  37.8775564  21.2166171
  51.1182315  40.8217550  28.6260270  50.9726896  41.1357853  29.5184552
  50.6407519  41.4402450  28.0731169  52.9778698  37.8120098  28.6741160
  52.9640267  36.9161191  28.3373458  53.6951126  37.8190762  29.3079446
  54.8304829  38.2457438  30.7194287  54.5722607  39.1674509  30.7178618
  54.2989869  37.8487873  31.4094751  45.5927978  43.3622894  31.5647931
  45.0481446  44.1382702  31.6968206  46.4707327  43.7093699  31.4067053
  52.3815594  36.6934478  23.9428730  52.5031505  35.7651124  24.1419617
  52.0917637  36.7073164  23.0307045  46.3793999  42.4892791  34.4578088
  45.6375735  42.6375426  35.0442719  46.0586744  42.7501056  33.5944838
  46.8250613  50.3758219  26.4888483  47.6508633  50.0761991  26.1087126
  46.4744665  49.6065842  26.9378272  51.7932146  49.7284687  28.5586156
  51.1712156  49.0655392  28.2588384  52.4637013  49.7545819  27.8759804
  45.0259218  48.2944546  27.4477416  44.1891126  47.8666720  27.2661418
  44.9982864  48.4876989  28.3848208  51.8656674  38.2066475  38.1518663
  51.9144829  39.0828598  37.7696432  52.4079188  37.6643869  37.5790306
  51.3545653  48.2788611  22.0344617  51.5033774  48.9624075  21.3811290
  52.1612097  48.2593701  22.5494073  54.0955962  38.9597848  34.9065021
  53.2259272  39.2531414  34.6347610  54.3315443  39.5438293  35.6272285
  49.1098286  44.3053788  23.0405686  48.8644328  43.4016118  23.2385896
  49.2794201  44.3070939  22.0985164  48.3793934  40.0382146  20.5391847
  47.6863179  40.1126501  19.8831883  48.1345686  39.2742490  21.0613364
  53.4230774  40.0347530  16.7827302  52.5162230  39.7380643  16.8590016
  53.7006755  39.7377348  15.9161588  44.3408715  41.3553894  27.2326349
  44.0211499  40.5019202  26.9400723  43.7942143  41.5702472  27.9884316
  48.1188622  44.0716335  30.9495855  48.3374632  45.0033443  30.9683889
  48.5314396  43.7124309  31.7350659  52.9916488  39.6449541  40.3398604
  52.8913214  40.5943898  40.2710695  52.7738030  39.3167779  39.4674674
  52.1929559  36.8934466  16.9239281  53.0548723  37.2189364  17.1835099
  52.3779903  36.1065962  16.4112347  44.2096975  44.9756805  29.2019470
  43.5160446  44.5610758  28.6889425  44.9569966  45.0177342  28.6052889
  52.8547758  43.0746679  39.1563666  52.3714839  43.8747040  39.3627555
  52.9408697  43.0854624  38.2031110  46.1233717  44.9075059  27.0785485
  46.1004405  45.0062746  26.1267368  46.4334354  45.7540210  27.4002651
  48.7821095  46.9651214  31.1932099  49.7364349  46.9335156  31.1262031
  48.5833619  46.5041838  32.0082325  49.3720477  45.5352330  33.7602897
  50.1913366  46.0296409  33.7837734  49.6457285  44.6184298  33.7320465
  47.1371324  52.5070834  28.2102297  47.0025792  51.7471234  27.6440295
  46.7203386  53.2311733  27.7431086  44.6255391  39.8690464  34.4595094
  45.2714255  39.3589418  34.9482319  44.4172543  40.6059146  35.0338519
  53.1459002  34.1330509  20.2118990  53.1337672  35.0772349  20.3687261
  54.0382424  33.9500654  19.9178452  48.9652882  37.0158081  38.5570108
  49.8284344  36.6594886  38.7673433  48.3918293  36.6771976  39.2445513
  30.2447412   0.0051435  10.8925492  30.1671442   0.9559260  10.9713972
  29.6409056  -0.3402693  11.5500418  27.8834242   2.7536829  15.0373694
  28.1230840   3.3855353  15.7152712  27.0403439   2.4024869  15.3239053
  32.4984343   0.8128574  18.9655131  33.0502651   0.9760196  19.7304216
  32.8390536   1.4033012  18.2935155  25.4583816  -1.1450879  14.9347604
  25.3238284  -1.9050478  14.3685602  25.0415878  -0.4209979  14.4676393
  28.6152942  -0.2481562  15.1466047  28.4985326   0.6963870  15.0444737
  27.7945388  -0.5508001  15.5351846  29.6407456   0.4046700  18.3621975
  30.5434703   0.4370310  18.6788470  29.4144826  -0.5252849  18.3768311
  39.7990274   6.8001129  12.0136232  39.2355139   6.7091066  11.2452519
  39.6842669   5.9801034  12.4938724  44.4223241   6.1000505  21.9825546
  44.4111882   5.7053303  21.1106050  44.5843880   5.3666577  22.5759318
  37.3454706   8.2952321  14.8520452  38.1375998   7.9543145  14.4366751
  37.5851356   8.4047296  15.7722605  39.3045460   7.5561234   7.7237831
  40.0776336   7.0090221   7.5850707  39.6570858   8.4205483   7.9352292
  41.1430502   8.8837616  20.9304730  40.8520368   9.7883247  20.8151397
  41.7787486   8.9254144  21.6448800  42.0686709   6.2614465  17.5206090
  42.6650281   6.0370487  16.8063053  42.1261680   5.5199210  18.1231538
  46.1020387   8.5699032  17.9254524  45.8021110   9.4724071  17.8170331
  45.7571447   8.3031215  18.7775677  39.5532869   5.0212829  13.9591228
  38.6283365   4.8889043  14.1668920  39.8017282   5.8007048  14.4561171
  36.9141680   4.6646102  14.7935017  37.0434061   4.9180581  15.7074429
  36.2339131   5.2573810  14.4739672  41.0841167  15.3343352  10.8925492
  41.0065197  16.2851177  10.9713972  40.4802811  14.9889225  11.5500418
  41.8304769   5.3156671  23.1104826  42.5719453   5.8541715  22.8339649
  41.1241755   5.9422960  23.2676377  47.3060109   7.4585811  21.7076987
  47.7143465   7.0168222  20.9631619  46.5837370   6.8838439  21.9611180
  47.6288923   8.0187002  15.4629276  46.9997786   8.1832716  14.7605344
  47.2414585   8.4328612  16.2340240  43.1816885   7.7561410  12.7279361
  43.6455231   8.0349113  11.9383983  42.9173683   6.8544855  12.5452452
  40.0740966   7.3032892  15.6659124  40.6442323   7.7320160  15.0276609
  40.6649078   7.0215476  16.3643310  35.8611105   2.1368115  14.8386060
  35.0710159   2.3925644  14.3626170  36.3522353   2.9516453  14.9438100
  49.8774915   9.4773354  17.5891341  50.6992359   9.0753542  17.3074022
  49.8737318   9.3741589  18.5407456  37.8125851   2.5012694  11.7969536
  37.0157014   2.6131389  12.3153032  37.5851443   2.8399347  10.9310427
  43.6431518   9.0257398  19.7452051  43.7075951   9.4877805  20.5810223
  42.9342442   8.3954763  19.8734361  34.1448808   2.3898606  17.2701050
  34.3956847   3.2745616  17.5358626  34.6808357   2.2103207  16.4976142
  43.3579536  10.6925505   9.6131031  43.2225211  11.5377041  10.0415879
  43.8989348  10.8944783   8.8496965  36.8108933   8.2100943  10.1858956
  37.3233454   9.0044193  10.3364521  37.4631646   7.5127234  10.1192558
  38.6203818  11.3266699  12.2681710  38.7970446  12.2484664  12.0802693
  39.4160652  11.0125119  12.6976089  37.9056175   3.3731331  22.1443873
  37.7909690   2.4716589  22.4450972  37.0500692   3.6195028  21.7928689
  44.9848012  11.3149072  23.7431373  44.5411866  10.5285450  23.4252278
  45.6465226  11.5028222  23.0775264  39.7435133  12.8444873  18.2692052
  40.2942559  12.7161937  17.4969046  38.9046609  13.1439762  17.9186945
  47.0829250  11.5951872  21.7712775  47.0647726  12.4160753  21.2793044
  48.0049170  11.4705947  21.9962916  43.5402305   9.1096001  22.6136283
  44.0730641   8.3484289  22.3835591  43.0116386   8.8169653  23.3560438
  34.7757850   6.5389597  10.9618527  35.6133072   6.9486606  10.7452235
  34.9536118   5.5989040  10.9318721  44.9055017   8.2381994  10.1255095
  44.3776379   7.5034753   9.8128333  44.4042520   9.0156670   9.8795063
  45.9575696  14.7659711   6.0486754  45.2837395  15.0691408   6.6571712
  46.3441518  15.5688791   5.6992211  49.4615118   9.7681388  11.4205226
  49.0077445   8.9272298  11.4770416  48.8309085  10.4042787  11.7580006
  47.9048057  11.6057885  12.3555044  48.1971032  12.1662942  11.6367410
  48.4146678  11.8986446  13.1108203  34.7984021   3.8780313  11.6329260
  34.6008421   3.2849674  10.9080327  34.2430685   3.5732523  12.3505199
  42.8681683  12.3838236  13.4448497  42.8257861  12.6099082  12.5157029
  43.7844382  12.1501611  13.5934298  52.0714433   8.0417266  16.0589727
  52.5050940   7.9492555  16.9072781  52.7846014   8.0174767  15.4209743
  40.9847483   9.2601265  13.2410460  41.7788082   8.7651585  13.0393035
  40.2739176   8.7319128  12.8778165  45.8042328  11.6419360  17.5922827
  45.8579350  12.2110297  18.3600543  44.9357109  11.8121246  17.2276865
  37.2930247   3.4044347   9.3170213  36.3627835   3.3428802   9.5340175
  37.3887719   2.8820299   8.5206854  47.9945091   8.2347710  24.1663493
  47.8430598   8.0058261  23.2493577  47.9849771   9.1918311  24.1794838
  44.7630428   5.8079623  19.1509759  45.6922488   5.9590782  18.9778727
  44.3421458   5.8963643  18.2958406  43.5618759   9.8330287  16.9208297
  43.4229845   9.4649071  17.7934235  42.7733356  10.3477926  16.7492255
  44.1566911  14.9339383   8.2633833  44.3318667  14.4627427   9.0779456
  43.4699699  15.5605150   8.4915094  45.1123975   9.2111890  14.3097135
  44.7773807   9.1712660  15.2054785  44.6127920   8.5456606  13.8367545
  39.0868219   4.6179520  19.8349716  38.9488016   3.8859759  20.4361255
  39.9973142   4.5288420  19.5533904  49.7037298  11.2666832  22.2439975
  49.6449844  10.5826052  21.5770558  50.1056816  12.0085822  21.7920601
  38.7227997  18.0828746  15.0373694  38.9624595  18.7147270  15.7152712
  37.8797193  17.7316786  15.3239053  49.7054705   9.2306416  20.4753954
  48.8181484   8.8932338  20.5980353  50.2753256   8.4989448  20.7122720
  31.3583852   5.5630508  13.7997006  32.0454892   5.2492238  13.2118021
  31.2031981   6.4671873  13.5264257  43.2355859  13.8907869  17.4415198
  43.1626030  14.6962840  17.9534502  42.7933252  14.0899834  16.6163219
  43.0245638  13.1279639  10.9518019  42.2413160  13.6701319  11.0456244
  43.7238383  13.6453618  11.3512260  45.6954542  13.7894703  19.5973356
  46.4082514  14.4242167  19.5249258  45.2044571  13.8858569  18.7813358
  40.7466456  11.5389146  20.4178927  41.4475915  12.1725629  20.5708321
  40.2761571  11.8803878  19.6574566  45.5074915  14.1293447  12.3459648
  45.6897310  13.3115103  12.8087400  46.3307901  14.3461139  11.9084538
  45.8417081  13.0561632   9.6074696  46.3704847  12.5454086   8.9944858
  46.1045301  12.7404162  10.4720229  36.3434174  11.0725501  17.3510030
  36.9287610  10.3269189  17.4837934  36.1459012  11.3829458  18.2346694
  39.1972829  14.1076749  12.3672472  38.5283204  14.5922876  11.8836512
  39.0585699  14.3545969  13.2815851  30.9351828   3.6431101  16.0714473
  30.9735928   3.1094692  16.8651591  30.4292121   3.1166307  15.4525450
  43.3378097  16.1420492  18.9655131  43.8896406  16.3052114  19.7304216
  43.6784291  16.7324930  18.2935155  48.1888972  10.9681750  24.8203785
  48.7328876  11.5811708  24.3258740  47.6075817  11.5261328  25.3370798
  34.5660406   2.3695204   9.1468404  34.8613847   1.4605882   9.0935458
  33.6648442   2.3482943   8.8249407  46.4746485  14.0902468  15.9518813
  46.3497624  13.2892207  15.4429758  47.1325576  14.5848661  15.4632783
  48.5381393  11.8911488  17.5798363  47.5911729  11.7716839  17.5076689
  48.8864166  11.0033986  17.6624624  45.5427826  11.6864204  13.7802715
  45.3952789  10.7580911  13.9610285  46.3681320  11.7084295  13.2959790
  49.1461948  12.5092763  14.8667588  50.0708496  12.3035624  14.7292039
  48.9777252  12.2609164  15.7756929  48.9357264  13.0278430  10.2229679
  49.1094142  12.4624853   9.4703532  49.4286156  13.8279325  10.0409169
  34.7534224   5.0393099  18.2893238  34.2087692   5.8152907  18.4213512
  35.6313574   5.3863904  18.1312359  35.5400246   4.1662995  21.1823395
  34.7981982   4.3145631  21.7688025  35.2192990   4.4271261  20.3190144
  43.4843909  13.7078974  20.9803785  43.7931035  13.4628120  21.8526484
  44.2819391  13.9125612  20.4922655  43.5064521  15.8616883  13.2109161
  43.0669511  15.3693262  13.9042018  44.2572638  15.3189851  12.9701237
  35.9856860  12.0528424  13.2133790  36.8114880  11.7532196  12.8332433
  35.6350912  11.2836047  13.6623578  40.9538393  11.4054892  15.2831463
  40.3318402  10.7425597  14.9833691  41.6243260  11.4316024  14.6005111
  34.1865465   9.9714751  14.1722723  33.3497373   9.5436925  13.9906724
  34.1589110  10.1647194  15.1093514  51.5117766  10.4277804  24.1565106
  50.7213310  10.4101943  23.6169606  51.2751121  10.9666097  24.9114143
  40.5151900   9.9558816   8.7589924  40.6640020  10.6394280   8.1056596
  41.3218343   9.9363906   9.2739379  53.1333838   9.6967212  21.7139856
  52.8418646  10.0597192  22.5503317  52.5205969   8.9834220  21.5353188
  38.2704533   5.9823993   9.7650993  38.0250575   5.0786323   9.9631203
  38.4400447   5.9841144   8.8230471  44.0147305  12.4506946   6.2301671
  43.4421273  13.0697133   5.7772143  44.5880099  13.0006308   6.7641593
  44.2832796   7.8385505  25.0318381  45.2035806   8.0164104  25.2258427
  44.2482380   6.8941550  24.8798080  33.5014961   3.0324099  13.9571655
  33.1817746   2.1789407  13.6646029  32.9548390   3.2472677  14.7129623
  37.2794869   5.7486540  17.6741162  37.4980879   6.6803648  17.6929196
  37.6920643   5.3894514  18.4595966  33.3703221   6.6527010  15.9264777
  32.6766693   6.2380963  15.4134731  34.1176212   6.6947547  15.3298196
  42.0154004   4.7516884  25.8808972  41.5321086   5.5517244  26.0872861
  42.1014943   4.7624829  24.9276416  35.2839964   6.5845264  13.8030792
  35.2610652   6.6832951  12.8512675  35.5940600   7.4310415  14.1247958
  37.9427342   8.6421419  17.9177406  38.8970595   8.6105361  17.8507338
  37.7439865   8.1812043  18.7327632  38.5326724   7.2122535  20.4848204
  39.3519613   7.7066614  20.5083041  38.8063532   6.2954503  20.4565771
  36.2977571  14.1841039  14.9347604  36.1632039  13.4241439  14.3685602
  35.8809633  14.9081938  14.4676393  39.4546697  15.0810356  15.1466047
  39.3379081  16.0255788  15.0444737  38.6339143  14.7783917  15.5351846
  46.3115030   8.6141516  26.6832541  47.1806190   8.7882169  26.3219176
  45.8321782   9.4335933  26.5608271  40.4801211  15.7338617  18.3621975
  41.3828457  15.7662228  18.6788470  40.2538581  14.8039068  18.3768311
  42.2354813  14.4869604  15.0232054  41.2850444  14.4871466  14.9096426
  42.5387299  13.7402339  14.5068088  50.6384028  22.1293047  12.0136232
  50.0748893  22.0382984  11.2452519  50.5236423  21.3092951  12.4938724
  55.2616995  21.4292422  21.9825546  55.2505636  21.0345220  21.1106050
  55.4237635  20.6958495  22.5759318  48.1848460  23.6244238  14.8520452
  48.9769752  23.2835063  14.4366751  48.4245110  23.7339214  15.7722605
  50.1439214  22.8853152   7.7237831  50.9170090  22.3382139   7.5850707
  50.4964613  23.7497401   7.9352292  51.9824257  24.2129534  20.9304730
  51.6914123  25.1175165  20.8151397  52.6181241  24.2546062  21.6448800
  52.9080463  21.5906383  17.5206090  53.5044036  21.3662405  16.8063053
  52.9655435  20.8491128  18.1231538  54.5433322  20.4084071  11.2627345
  54.1791529  19.8814692  11.9740267  55.4000437  20.0182540  11.0893830
  50.3926623  20.3504746  13.9591228  49.4677120  20.2180960  14.1668920
  50.6411036  21.1298966  14.4561171  47.7535434  19.9938020  14.7935017
  47.8827815  20.2472499  15.7074429  47.0732885  20.5865728  14.4739672
  51.9234921  30.6635270  10.8925492  51.8458951  31.6143095  10.9713972
  51.3196565  30.3181142  11.5500418  54.4152151  17.8363135  23.5486859
  53.6385485  18.3957055  23.5389723  55.0542714  18.3219918  24.0701729
  52.6698524  20.6448589  23.1104826  53.4113208  21.1833633  22.8339649
  51.9635509  21.2714877  23.2676377  54.4984933  17.7250336  19.0810544
  55.3446128  18.1489749  19.2245193  54.4383571  17.0683960  19.7749107
  54.0210640  23.0853328  12.7279361  54.4848985  23.3641031  11.9383983
  53.7567438  22.1836772  12.5452452  50.9134721  22.6324809  15.6659124
  51.4836078  23.0612078  15.0276609  51.5042833  22.3507394  16.3643310
  52.9579526  19.2076480   9.5368926  53.6603569  19.6597524  10.0042852
  52.6260154  18.5660299  10.1648819  51.4059887  17.7988237  23.9120136
  50.7758548  18.4804518  24.1455532  51.2995975  17.6871318  22.9673274
  46.7004860  17.4660033  14.8386060  45.9103914  17.7217561  14.3626170
  47.1916107  18.2808371  14.9438100  48.6519605  17.8304612  11.7969536
  47.8550768  17.9423306  12.3153032  48.4245197  18.1691264  10.9310427
  54.4825273  24.3549315  19.7452051  54.5469705  24.8169723  20.5810223
  53.7736197  23.7246680  19.8734361  44.9842563  17.7190523  17.2701050
  45.2350601  18.6037533  17.5358626  45.5202111  17.5395125  16.4976142
  54.1973290  26.0217423   9.6131031  54.0618965  26.8668959  10.0415879
  54.7383103  26.2236700   8.8496965  50.6840630  12.1009003  26.2745387
  50.2907576  11.5475201  26.9493031  51.5006770  12.4119581  26.6651904
  47.6502688  23.5392861  10.1858956  48.1627208  24.3336111  10.3364521
  48.3025401  22.8419151  10.1192558  49.4597572  26.6558617  12.2681710
  49.6364201  27.5776582  12.0802693  50.2554406  26.3417036  12.6976089
  53.6008591  13.5166882  23.8665643  54.3418304  14.1174035  23.7870106
  53.8326514  12.7744520  23.3083686  48.7449929  18.7023249  22.1443873
  48.6303444  17.8008506  22.4450972  47.8894447  18.9486946  21.7928689
  50.5828888  28.1736791  18.2692052  51.1336313  28.0453854  17.4969046
  49.7440364  28.4731680  17.9186945  54.3796059  24.4387919  22.6136283
  54.9124396  23.6776207  22.3835591  53.8510140  24.1461571  23.3560438
  45.6151605  21.8681515  10.9618527  46.4526827  22.2778524  10.7452235
  45.7929872  20.9280957  10.9318721  52.8705180  11.9991370  15.1145340
  53.7358177  11.8034178  14.7551229  52.9382689  11.7701721  16.0414697
  50.4767499  14.2293578  12.4861707  51.0511251  14.0068759  11.7534900
  51.0638482  14.2982272  13.2390308  45.6377776  19.2072230  11.6329260
  45.4402176  18.6141591  10.9080327  45.0824440  18.9024441  12.3505199
  53.6174499  19.0995337  13.7523854  53.6723109  18.1469173  13.6766330
  52.8065701  19.2554776  14.2365152  51.5566859  17.7172397  11.5114232
  50.7434725  18.0166567  11.9179425  52.0525853  17.3228085  12.2288715
  53.7075437  27.7130154  13.4448497  53.6651616  27.9391000  12.5157029
  54.6238136  27.4793528  13.5934298  51.0480934  15.2890752  17.1275467
  51.6880313  15.1479511  16.4298431  50.2158465  15.0025266  16.7514069
  51.8241238  24.5893183  13.2410460  52.6181836  24.0943503  13.0393035
  51.1132930  24.0611046  12.8778165  48.1324001  18.7336264   9.3170213
  47.2021589  18.6720720   9.5340175  48.2281473  18.2112217   8.5206854
  48.0509550  15.2591077  11.9048454  48.3116368  16.1736410  11.7957615
  48.8726723  14.7915520  12.0545067  49.5234476  16.6728834  19.0747279
  50.1957529  16.4646197  18.4259928  48.6964262  16.4750920  18.6352511
  54.4012514  25.1622205  16.9208297  54.2623600  24.7940989  17.7934235
  53.6127110  25.6769844  16.7492255  54.9960666  30.2631301   8.2633833
  55.1712422  29.7919344   9.0779456  54.3093454  30.8897067   8.4915094
  49.9261973  19.9471437  19.8349716  49.7881771  19.2151676  20.4361255
  50.8366897  19.8580337  19.5533904  52.5544274  19.6591397  19.3233396
  53.2643892  19.0184589  19.2820014  52.5113582  19.9104292  20.2459576
  51.2673208  16.6456615  21.1429035  50.7310565  16.1947353  21.7950631
  50.6789916  16.7802523  20.3999499  49.5621751  33.4120664  15.0373694
  49.8018349  34.0439188  15.7152712  48.7190948  33.0608704  15.3239053
  42.1977607  20.8922426  13.7997006  42.8848647  20.5784156  13.2118021
  42.0425735  21.7963790  13.5264257  47.0012329  15.7812622  18.2282029
  46.9170518  15.1738292  17.4932439  46.1795035  16.2721641  18.2291526
  54.0749613  29.2199786  17.4415198  54.0019785  30.0254758  17.9534502
  53.6327006  29.4191752  16.6163219  53.8639393  28.4571556  10.9518019
  53.0806915  28.9993237  11.0456244  54.5632138  28.9745536  11.3512260
  53.7571012  16.4083569  13.3223909  53.3868799  15.8554609  14.0104815
  54.2530104  15.8041702  12.7698909  51.5860210  26.8681064  20.4178927
  52.2869670  27.5017547  20.5708321  51.1155325  27.2095795  19.6574566
  47.1827928  26.4017419  17.3510030  47.7681365  25.6561107  17.4837934
  46.9852767  26.7121376  18.2346694  50.0366583  29.4368666  12.3672472
  49.3676959  29.9214794  11.8836512  49.8979453  29.6837887  13.2815851
  41.7745583  18.9723019  16.0714473  41.8129682  18.4386610  16.8651591
  41.2685876  18.4458225  15.4525450  54.1771852  31.4712410  18.9655131
  54.7290160  31.6344031  19.7304216  54.5178045  32.0616848  18.2935155
  49.1536345  13.8187560  19.5677015  49.2177672  14.6802390  19.1554413
  49.0903465  13.2061561  18.8349374  48.6288618  15.8910692  23.2150049
  49.2560657  15.5087769  23.8287574  47.7716537  15.6724894  23.5805742
  45.4054160  17.6987121   9.1468404  45.7007602  16.7897800   9.0935458
  44.5042196  17.6774861   8.8249407  48.9348407  15.7743118  15.1295953
  48.2134993  16.3879085  14.9903426  49.7241663  16.3100883  15.0512599
  51.7374721  13.1097544  21.4036605  52.2609123  13.3559841  22.1662914
  51.5187054  13.9417579  20.9839742  47.1342002  15.3801219   9.2707729
  46.8054708  14.4998598   9.0882835  47.4881373  15.3248888  10.1584119
  50.2483825  15.6674189   9.6383207  50.5879898  16.1960110   8.9161815
  50.6955946  16.0054595  10.4141774  52.9427266  14.0511239  19.0886275
  52.6024086  13.2519052  19.4906955  52.2366272  14.3512950  18.5163108
  53.5943738  11.1360552  17.5413598  54.4169807  10.6621030  17.4192489
  53.8381801  11.9151036  18.0412285  51.1182317  17.8279672  15.3505577
  50.9726897  18.1419976  16.2429858  50.6407520  18.4464573  14.7976475
  52.9778700  14.8182220  15.3986466  52.9640268  13.9223314  15.0618764
  53.6951128  14.8252884  16.0324752  54.8304830  15.2519561  17.4439594
  54.5722608  16.1736631  17.4423924  54.2989871  14.8549995  18.1340058
  45.5927979  20.3685017  18.2893238  45.0481447  21.1444825  18.4213512
  46.4707329  20.7155821  18.1312359  46.3794001  19.4954913  21.1823395
  45.6375737  19.6437548  21.7688025  46.0586745  19.7563179  20.3190144
  54.3237663  29.0370891  20.9803785  54.6324790  28.7920038  21.8526484
  55.1213145  29.2417530  20.4922655  54.3458275  31.1908801  13.2109161
  53.9063266  30.6985180  13.9042018  55.0966392  30.6481769  12.9701237
  46.8250614  27.3820342  13.2133790  47.6508634  27.0824114  12.8332433
  46.4744666  26.6127964  13.6623578  51.7932147  26.7346810  15.2831463
  51.1712157  26.0717515  14.9833691  52.4637014  26.7607942  14.6005111
  45.0259219  25.3006668  14.1722723  44.1891128  24.8728843  13.9906724
  44.9982865  25.4939112  15.1093514  51.8656675  15.2128598  24.8763969
  51.9144830  16.0890721  24.4941739  52.4079189  14.6705991  24.3035612
  51.3545654  25.2850733   8.7589924  51.5033775  25.9686198   8.1056596
  52.1612098  25.2655823   9.2739379  54.0955963  15.9659970  21.6310328
  53.2259273  16.2593537  21.3592916  54.3315444  16.5500415  22.3517591
  49.1098287  21.3115911   9.7650993  48.8644329  20.4078241   9.9631203
  49.2794202  21.3133061   8.8230471  48.3793935  17.0444269   7.2637154
  47.6863180  17.1188624   6.6077190  48.1345687  16.2804612   7.7858671
  54.8541060  27.7798864   6.2301671  54.2815027  28.3989051   5.7772143
  55.4273854  28.3298226   6.7641593  44.3408716  18.3616016  13.9571655
  44.0211500  17.5081325  13.6646029  43.7942144  18.5764595  14.7129623
  48.1188624  21.0778457  17.6741162  48.3374633  22.0095565  17.6929196
  48.5314397  20.7186432  18.4595966  52.9916489  16.6511663  27.0643911
  52.8913216  17.6006020  26.9956002  52.7738031  16.3229902  26.1919981
  44.2096976  21.9818928  15.9264777  43.5160447  21.5672881  15.4134731
  44.9569967  22.0239464  15.3298196  52.8547759  20.0808802  25.8808972
  52.3714841  20.8809162  26.0872861  52.9408698  20.0916747  24.9276416
  46.1233718  21.9137182  13.8030792  46.1004407  22.0124869  12.8512675
  46.4334355  22.7602332  14.1247958  48.7821096  23.9713337  17.9177406
  49.7364350  23.9397279  17.8507338  48.5833620  23.5103960  18.7327632
  49.3720478  22.5414453  20.4848204  50.1913367  23.0358531  20.5083041
  49.6457286  21.6246421  20.4565771  47.1371325  29.5132956  14.9347604
  47.0025793  28.7533357  14.3685602  46.7203387  30.2373856  14.4676393
  50.2940451  30.4102273  15.1466047  50.1772835  31.3547706  15.0444737
  49.4732897  30.1075835  15.5351846  44.6255393  16.8752587  21.1840401
  45.2714256  16.3651541  21.6727626  44.4172544  17.6121268  21.7583826
  51.3194965  31.0630535  18.3621975  52.2222212  31.0954145  18.6788470
  51.0932335  30.1330986  18.3768311  53.0748567  29.8161522  15.0232054
  52.1244198  29.8163383  14.9096426  53.3781053  29.0694256  14.5068088
  48.9652884  14.0220204  25.2815415  49.8284345  13.6657009  25.4918740
  48.3918294  13.6834099  25.9690819  53.0371361  36.2214343  13.7997006
  53.7242401  35.9076073  13.2118021  52.8819490  37.1255708  13.5264257
  52.6139337  34.3014937  16.0714473  52.6523437  33.7678527  16.8651591
  52.1079630  33.7750142  15.4525450  55.1802470  33.6907934  13.9571655
  54.8605255  32.8373242  13.6646029  54.6335899  33.9056512  14.7129623
   3.7712133  21.1504022  40.4885696   3.0175841  20.5811420  40.3329700
   3.9059674  21.1166687  41.4356330   4.1818548  21.3079632  43.2205940
   4.9121936  21.0464920  43.7813643   3.5725493  20.5708354  43.2608008
   2.2633845  19.4487495  43.8180391   1.5367009  19.3143460  43.2096883
   1.8481132  19.7564323  44.6237109   2.1882713  18.9765548  39.9457244
   1.6282271  19.0458737  40.7188806   1.5826216  18.8006533  39.2256740
   3.7738731  35.6522062  42.6387200   4.4117141  35.5328809  41.9350540
   3.6559574  36.6002906  42.6975152   2.0214812  41.1255934  33.8760080
   1.3702792  41.7110014  33.4894094   2.8159175  41.6562129  33.9355118
   3.3280000  33.3773516  39.7140408   4.1143089  32.9592939  39.3630825
   3.5918704  34.2819608  39.8822056   3.4990077  38.8146366  34.4129065
   2.8635910  38.8880992  35.1249969   3.1687483  39.4039965  33.7348144
   8.7288427  33.3148749  40.6173386   9.4613599  32.7447966  40.8511216
   7.9727783  32.9270349  41.0579892   6.2513847  27.0270323  45.0767995
   5.9197172  27.8965734  44.8529210   5.6559461  26.7106607  45.7562025
   2.7445367  39.2282869  44.4763908   2.4446090  40.1307908  44.3679715
   2.3996426  38.9615052  45.3285060   6.1442510  31.7465409  42.1561345
   5.2359388  31.6780818  41.8620106   6.0930106  32.2237354  42.9843170
   8.0104157  29.9481848  43.9339219   7.3678537  30.2414381  43.2879013
   7.5059085  29.8334768  44.7392415   5.6644321  33.6945021  34.6225078
   6.5762177  33.9272407  34.4472776   5.1553968  34.2782065  34.0600157
   4.2713903  38.6770839  42.0138660   3.6422765  38.8416553  41.3114727
   3.8839565  39.0912449  42.7849624   8.1503135  39.6125277  39.3683023
   7.4654173  39.9924178  38.8180057   8.2346984  40.2220604  40.1014971
   3.4515604  30.7146624  47.2901101   3.2076535  31.4688684  46.7535377
   3.7275534  31.0931971  48.1248348   5.4054066  37.2585236  45.9678367
   5.6170962  37.9016996  45.2912748   5.3583815  36.4247553  45.5000297
   3.0080295  29.8703057  42.8714939   2.1464774  30.1684310  43.1631677
   3.0342730  30.0873456  41.9395972   6.5199894  40.1357191  44.1400724
   7.3417338  39.7337379  43.8583406   6.5162297  40.0325426  45.0916840
  14.6105887  36.4795940  40.4885696  13.8569596  35.9103338  40.3329700
  14.7453429  36.4458604  41.4356330   3.3496979  24.8739904  44.6939308
   3.0061248  25.7641546  44.6178419   3.7175942  24.6841562  43.8308893
   3.3147262  34.8648515  33.2011744   2.7993885  35.6353120  33.4400131
   3.0424570  34.1913651  33.8244805   2.4293519  27.2444559  42.6588542
   1.9258315  27.2074694  41.8456347   2.7224126  28.1537302  42.7185198
   8.2881536  37.6180870  35.1364917   7.5110979  37.2792029  34.6920079
   8.9673017  37.6233493  34.4619882   3.1033565  32.7375607  35.0271525
   2.7983700  33.0521757  35.8781668   4.0564007  32.8157027  35.0698858
   1.5479997  38.8965831  36.6764479   1.0201358  38.1618590  36.3637716
   1.0467499  39.6740507  36.4304447   6.5272843  37.0914851  41.7931525
   5.8696517  37.7814113  41.8811654   7.3313242  37.4811283  42.1365511
   5.3378302  35.4459224  39.8435467   5.8510183  36.0789216  40.3457177
   5.9879525  34.8460419  39.4778827   2.6000676  45.4243548  32.5996138
   1.9262375  45.7275245  33.2081096   2.9866498  46.2272628  32.2501595
   1.8159132  32.9208679  42.0893807   0.8981694  33.1423626  41.9315495
   2.2319276  32.9954990  41.2305515   2.5994180  34.3200095  37.2196488
   3.3465999  34.8321492  36.9103610   2.8685770  33.9984148  38.0800881
   6.1040098  40.4265225  37.9714609   5.6502425  39.5856135  38.0279800
   5.4734064  41.0626624  38.3089390   5.0473017  31.3557211  39.2015277
   4.3095774  30.8434598  39.5325519   5.2999791  30.9157593  38.3898554
   4.5473037  42.2641722  38.9064428   4.8396011  42.8246779  38.1876793
   5.0571658  42.5570283  39.6617587   5.1484645  24.1333463  39.7957046
   5.4543521  23.2730827  39.5082961   5.8737249  24.7251084  39.5956040
   2.9572296  33.5106141  46.8938510   3.3121684  33.7377614  47.7532976
   3.6044427  33.8424517  46.2715765   8.6870033  36.6324577  37.5987839
   8.5487932  36.8226172  36.6709028   8.3306252  37.3943959  38.0555890
   8.7139413  38.7001104  42.6099110   9.1475919  38.6076393  43.4582165
   9.4270993  38.6758604  41.9719126   9.5754962  38.7424804  45.1431996
   9.7690852  39.6470615  45.3891271   9.4755580  38.2832223  45.9770581
   1.2291273  28.6282695  47.6422323   0.5819188  29.3272644  47.5486800
   1.9992288  29.0618839  48.0098571   1.4055407  36.4663460  45.7019143
   2.3347467  36.6174619  45.5288110   0.9846437  36.5547480  44.8467789
   1.7548954  39.8695727  40.8606518   1.4198787  39.8296497  41.7564168
   1.2552900  39.2040443  40.3876929   4.6908146  37.2151761  31.1343578
   4.0737316  36.4898589  31.0376631   4.2224634  37.9761121  30.7910652
   6.3479685  39.8890253  47.0263338   5.4606463  39.5516175  47.1489737
   6.9178236  39.1573285  47.2632103   2.9767268  29.5958105  40.1461608
   3.4735967  28.8428068  39.8262678   2.2054249  29.6322422  39.5804818
  10.8297025  35.2998471  41.7879900  10.8186901  36.1823186  41.4173833
   9.9614405  34.9470022  41.5934437   4.0597049  38.3529792  37.7200032
   3.1253327  38.4731255  37.5504736   4.2373717  37.4502259  37.4560041
   7.4469600  34.1947112  38.2550066   7.9130052  35.0275103  38.1810368
   7.8977100  33.7292093  38.9595324   5.5145831  40.5390933  35.2536218
   5.7905675  40.4247528  36.1630092   4.6450330  40.1408418  35.2148391
   5.4186263  26.5627699  42.2940967   4.5049342  26.7931926  42.4623174
   5.8479364  26.6466143  43.1454999   5.1892721  34.7517591  44.7940861
   4.5364171  34.9993498  44.1393314   5.5673101  33.9381729  44.4603338
   2.1499895  44.7877284  38.8969031   2.3322290  43.9698940  39.3596784
   2.9732881  45.0044976  38.4593921   2.4842060  43.7145469  36.1584080
   3.0129827  43.2037924  35.5454242   2.7470280  43.3987999  37.0229613
   3.1171464  44.7486305  42.5028196   2.9922604  43.9476045  41.9939142
   3.7750555  45.2432498  42.0142166   5.1806373  42.5495325  44.1307746
   4.2336708  42.4300676  44.0586073   5.5289146  41.6617823  44.2134008
   2.1852806  42.3448041  40.3312099   2.0377768  41.4164748  40.5119669
   3.0106299  42.3668132  39.8469174   5.7886928  43.1676600  41.4176971
   6.7133475  42.9619461  41.2801423   5.6202231  42.9193001  42.3266313
   2.1814320  30.1985879  35.3244216   2.3977935  31.0810517  35.0233044
   1.7008387  29.8072092  34.5949858   5.5782244  43.6862267  36.7739063
   5.7519122  43.1208690  36.0212915   6.0711135  44.4863162  36.5918553
   1.0538011  26.7143431  40.3550140   1.0759708  26.7782764  39.4002120
   1.4706070  25.8747939  40.5490646  11.4321635  36.4498690  38.3929363
  11.8752781  35.7006015  37.9948486  10.5548145  36.4408827  38.0103095
   6.5657417  43.0029032  33.8735961   7.2608321  43.6235724  34.0923276
   6.9080567  42.1524383  34.1488339   8.4648840  40.4528737  35.4023292
   8.9900164  40.7916010  34.6772612   8.3771192  39.5175752  35.2186427
   8.2740621  37.9354107  48.0207218   8.3238626  37.7704115  48.9622741
   8.1654544  37.0681366  47.6305099   5.5644383  33.9185035  49.3366525
   6.4654246  33.7791500  49.0450523   5.6392358  34.0839490  50.2764703
   9.7758818  40.3551049  48.2649240   9.4843626  40.7181029  49.1012701
   9.1630949  39.6418057  48.0862572  10.9754500  37.9203928  40.7851810
  11.8101391  38.3593733  40.9489371  11.1113629  37.4442582  39.9660056
   8.0246006  35.4783663  46.7329298   8.5000127  35.6711310  45.9248149
   7.1011571  35.5342849  46.4872682   2.6026222  27.5131507  45.6985132
   3.1208166  28.2492534  45.3731620   2.2481355  27.8195500  46.5331891
   2.8538816  23.9331789  41.2186028   3.1340570  23.2654978  41.8446455
   3.6389423  24.1260885  40.7060692   6.7247675  32.3549423  44.9657604
   7.6765098  32.4547521  44.9869828   6.5551125  31.5627692  45.4755688
   4.7462054  29.4405007  45.1517004   4.1511986  29.7210019  44.4563493
   4.4611751  29.9298908  45.9233746   3.8769545  43.3927933  33.9119637
   4.8100218  43.3273495  34.1152513   3.7892758  44.2284200  33.4534170
   6.5057561  42.7093804  30.8723585   6.4271193  42.3753667  31.7659342
   7.3267228  43.2015572  30.8715057   9.2035753  35.5755543  44.0799903
   9.1712073  34.6371544  44.2659587   9.8136376  35.6539580  43.3465728
   1.0419083  34.4451596  30.1227107   1.9878188  34.3157804  30.1915525
   0.6633328  33.7066258  30.5996535   9.3530241  32.3666587  44.1258186
   8.8369290  31.5825043  43.9388115  10.2370190  32.0385303  44.2904706
   7.0140968  26.1107602  40.0853999   6.8165789  25.8022690  40.9697331
   7.6240674  26.8369241  40.2151929  15.0212302  36.6371550  43.2205940
  15.7515691  36.3756838  43.7813643  14.4119248  35.9000272  43.2608008
  13.1027600  34.7779413  43.8180391  12.3760763  34.6435377  43.2096883
  12.6874886  35.0856241  44.6237109   2.7714615  25.9916509  37.8350530
   3.3245653  26.4111962  38.4940553   3.0084701  25.0652257  37.8773486
   6.1493422  28.1017034  37.3429195   5.5692091  28.7601838  36.9607247
   5.8829354  27.2794379  36.9316612   4.5996988  27.5022092  39.5450515
   5.0996766  27.6138626  38.7364834   5.2432596  27.1983145  40.1851323
   4.9318300  30.2617125  36.3985543   4.0444155  30.5466775  36.1805738
   5.3472289  30.1010888  35.5512820   8.2832836  30.2863645  40.1139882
   9.0593226  30.7760098  40.3864499   7.5580970  30.7121700  40.5711752
  10.7205394  30.9991265  41.1713823  11.3149885  30.7587001  40.4607131
  10.7931978  30.2798395  41.7987359   4.0761513  40.0261799  30.4933563
   4.7797363  40.2311802  31.1091218   3.3524162  40.5938561  30.7582646
   4.9059323  35.7771660  36.6135833   4.8494525  36.2340212  35.7743465
   5.4587666  35.0162345  36.4358676   8.7164129  31.5661392  37.4385953
   8.4601064  31.1658028  38.2694160   8.0916997  32.2805186  37.3136092
  13.0276467  34.3057466  39.9457244  12.4676025  34.3750655  40.7188806
  12.4219971  34.1298450  39.2256740   5.9848211  40.4644328  32.5432023
   6.8193815  40.0325527  32.3609498   5.8232554  40.2926342  33.4708917
   5.6394103  36.9676442  33.9088362   5.5842907  36.8020713  32.9676806
   5.0140158  37.6752475  34.0650552   2.7642348  23.0627327  37.7419617
   1.9974744  22.5085814  37.8876300   3.1753053  23.1349196  38.6033769
  14.6132486  50.9813979  42.6387200  15.2510896  50.8620727  41.9350540
  14.4953329  51.9294823  42.6975152  11.4222192  50.9341408  42.5748724
  11.0840703  50.8182472  41.6869259  12.2911960  50.5332573  42.5549731
   9.1230471  49.7029655  31.9065664   9.3755992  49.1811176  31.1449127
   8.1855030  49.5395800  32.0092348  14.1673754  48.7065433  39.7140408
  14.9536843  48.2884857  39.3630825  14.4312459  49.6111526  39.8822056
  19.5682181  48.6440667  40.6173386  20.3007353  48.0739883  40.8511216
  18.8121537  48.2562267  41.0579892  11.1858301  51.0667908  37.8136729
  10.8216508  50.5398529  38.5249650  12.0425417  50.6766377  37.6403214
  17.0907602  42.3562241  45.0767995  16.7590926  43.2257652  44.8529210
  16.4953215  42.0398525  45.7562025  10.8263788  46.0957808  32.8098077
  10.9938190  46.9638044  33.1768548  10.6360957  46.2585089  31.8859366
  16.9836265  47.0757327  42.1561345  16.0753142  47.0072735  41.8620106
  16.9323861  47.5529272  42.9843170  10.8053009  48.5515465  33.7944744
  10.6852634  48.9972516  34.6330224  10.1105597  48.9000783  33.2358282
  18.8497911  45.2773765  43.9339219  18.2072292  45.5706298  43.2879013
  18.3452840  45.1626686  44.7392415  16.5038075  49.0236938  34.6225078
  17.4155931  49.2564325  34.4472776  15.9947722  49.6073983  34.0600157
  14.2909358  46.0438541  47.2901101  14.0470290  46.7980602  46.7535377
  14.5669289  46.4223889  48.1248348  16.2447821  52.5877154  45.9678367
  16.4564716  53.2308914  45.2912748  16.1977569  51.7539470  45.5000297
  13.8474050  45.1994974  42.8714939  12.9858529  45.4976228  43.1631677
  13.8736484  45.4165373  41.9395972   9.6004505  49.8660317  36.0878310
  10.3028549  50.3181361  36.5552236   9.2685134  49.2244136  36.7158203
   5.2944585  48.4888449  38.3478920   4.4975748  48.6007143  38.8662416
   5.0670177  48.8275101  37.4819811  25.4499642  51.8087858  40.4885696
  24.6963350  51.2395256  40.3329700  25.5847183  51.7750522  41.4356330
  14.1890733  40.2031822  44.6939308  13.8455003  41.0933464  44.6178419
  14.5569696  40.0133479  43.8308893  14.1541016  50.1940433  33.2011744
  13.6387640  50.9645038  33.4400131  13.8818325  49.5205569  33.8244805
  11.7388127  45.0390134  38.2596982  10.8829724  44.6496984  38.0802621
  12.1515079  45.1182095  37.3996767  13.2687274  42.5736477  42.6588542
  12.7652069  42.5366612  41.8456347  13.5617881  43.4829220  42.7185198
   9.5130160  42.6575207  41.6654723  10.3783157  42.4618015  41.3060613
   9.5807669  42.4285558  42.5924080  19.1275290  52.9472788  35.1364917
  18.3504733  52.6083947  34.6920079  19.8066771  52.9525411  34.4619882
  13.9427319  48.0667525  35.0271525  13.6377455  48.3813674  35.8781668
  14.8957761  48.1448945  35.0698858  17.3666597  52.4206769  41.7931525
  16.7090272  53.1106030  41.8811654  18.1706996  52.8103201  42.1365511
   7.1192479  44.8877415  39.0371090   7.6936231  44.6652596  38.3044283
   7.7063461  44.9566109  39.7899692  16.1772056  50.7751142  39.8435467
  16.6903938  51.4081133  40.3457177  16.8273280  50.1752337  39.4778827
   7.4462066  46.9181876  33.0566976   6.6099378  47.2556562  33.3776250
   7.3066836  46.7830855  32.1194112   9.4215147  41.7618664  37.7646160
   8.7679559  41.4467681  37.1402774   9.3795621  41.1394404  38.4905983
  12.6552887  48.2500597  42.0893807  11.7375448  48.4715544  41.9315495
  13.0713031  48.3246908  41.2305515  13.4387935  49.6492013  37.2196488
  14.1859754  50.1613410  36.9103610  13.7079524  49.3276065  38.0800881
  15.8866772  46.6849129  39.2015277  15.1489529  46.1726515  39.5325519
  16.1393545  46.2449511  38.3898554  15.9878399  39.4625381  39.7957046
  16.2937276  38.6022744  39.5082961  16.7131004  40.0543001  39.5956040
  10.2599479  49.7579174  40.3033237  10.3148089  48.8053010  40.2275714
   9.4490681  49.9138613  40.7874536   8.1991839  48.3756234  38.0623616
   7.3859704  48.6750404  38.4688808   8.6950833  47.9811923  38.7798098
  13.7966050  48.8398058  46.8938510  14.1515438  49.0669531  47.7532976
  14.4438182  49.1716435  46.2715765  19.5263787  51.9616494  37.5987839
  19.3881686  52.1518090  36.6709028  19.1700006  52.7235877  38.0555890
   7.6905914  45.9474589  43.6784851   8.3305293  45.8063348  42.9807814
   6.8583444  45.6609103  43.3023453  19.5533167  54.0293021  42.6099110
  19.9869674  53.9368310  43.4582165  20.2664748  54.0050522  41.9719126
   4.6934530  45.9174914  38.4557838   4.9541347  46.8320248  38.3466998
   5.5151702  45.4499357  38.6054451  12.0685027  43.9574612  47.6422323
  11.4212942  44.6564562  47.5486800  12.8386043  44.3910756  48.0098571
   7.3200446  46.7629103  30.2564882   6.4429912  46.6417904  29.8927129
   7.7958199  45.9715181  30.0043771  13.8161022  44.9250023  40.1461608
  14.3129722  44.1719985  39.8262678  13.0448004  44.9614340  39.5804818
  21.6690780  50.6290388  41.7879900  21.6580656  51.5115104  41.4173833
  20.8008159  50.2761939  41.5934437  10.3995991  47.0667406  39.8733293
  10.0293779  46.5138446  40.5614198  10.8955084  46.4625539  39.3208293
  18.2863354  49.5239029  38.2550066  18.7523807  50.3567021  38.1810368
  18.7370855  49.0584011  38.9595324  16.2580017  41.8919616  42.2940967
  15.3443097  42.1223843  42.4623174  16.6873119  41.9758060  43.1454999
  16.0286476  50.0809508  44.7940861  15.3757926  50.3285416  44.1393314
  16.4066855  49.2673647  44.4603338   5.5773387  46.4326955  41.6805337
   4.8559973  47.0462923  41.5412810   6.3666643  46.9684720  41.6021982
   3.7766982  46.0385056  35.8217113   3.4479688  45.1582435  35.6392219
   4.1306352  45.9832725  36.7093502   6.8908805  46.3258026  36.1892591
   7.2304877  46.8543947  35.4671199   7.3380925  46.6638432  36.9651157
   9.5852246  44.7095077  45.6395659   9.2449066  43.9102890  46.0416339
   8.8791252  45.0096787  45.0672492  10.2368717  41.7944389  44.0922982
  11.0594787  41.3204867  43.9701872  10.4806781  42.5734873  44.5921668
   8.8776952  44.8232647  34.3885884   9.5985314  45.2013900  33.8849600
   8.2542256  45.5421524  34.4920861  13.0208075  45.5277796  35.3244216
  13.2371689  46.4102434  35.0233044  12.5402142  45.1364010  34.5949858
   7.7607296  48.4863510  41.9014960   7.6151877  48.8003813  42.7939242
   7.2832500  49.1048410  41.3485859   9.6203679  45.4766058  41.9495850
   9.6065248  44.5807151  41.6128148  10.3376107  45.4836721  42.5834136
  11.4729810  45.9103398  43.9948977  11.2147588  46.8320468  43.9933308
  10.9414850  45.5133832  44.6849442   9.0240575  44.3580438  37.2183420
   9.1456486  43.4297084  37.4174308   8.7342617  44.3719124  36.3061736
  11.8931765  42.0435348  40.3550140  11.9153462  42.1074681  39.4002120
  12.3099824  41.2039857  40.5490646  22.2715390  51.7790608  38.3929363
  22.7146536  51.0297933  37.9948486  21.3941900  51.7700744  38.0103095
  19.1134375  53.2646025  48.0207218  19.1632380  53.0996032  48.9622741
  19.0048299  52.3973284  47.6305099  16.4038138  49.2476953  49.3366525
  17.3048000  49.1083418  49.0450523  16.4786112  49.4131408  50.2764703
  21.8148254  53.2495846  40.7851810  22.6495146  53.6885650  40.9489371
  21.9507383  52.7734499  39.9660056  18.8639760  50.8075581  46.7329298
  19.3393882  51.0003227  45.9248149  17.9405326  50.8634767  46.4872682
  13.4419977  42.8423425  45.6985132  13.9601921  43.5784451  45.3731620
  13.0875110  43.1487418  46.5331891   5.0218914  47.7028106  33.8146538
   4.3288159  47.7772461  33.1586574   4.7770666  46.9388449  34.3368055
  13.6932571  39.2623707  41.2186028  13.9734325  38.5946896  41.8446455
  14.4783178  39.4552803  40.7060692  17.5641429  47.6841341  44.9657604
  18.5158852  47.7839439  44.9869828  17.3944880  46.8919610  45.4755688
  15.5855809  44.7696924  45.1517004  14.9905741  45.0501937  44.4563493
  15.3005505  45.2590825  45.9233746  20.0429507  50.9047461  44.0799903
  20.0105827  49.9663461  44.2659587  20.6530131  50.9831497  43.3465728
  11.8812838  49.7743514  30.1227107  12.8271943  49.6449722  30.1915525
  11.5027083  49.0358176  30.5996535  20.1923996  47.6958504  44.1258186
  19.6763044  46.9116961  43.9388115  21.0763944  47.3677221  44.2904706
  17.8534722  41.4399520  40.0853999  17.6559544  41.1314608  40.9697331
  18.4634428  42.1661159  40.2151929  25.8606057  51.9663468  43.2205940
  26.5909445  51.7048756  43.7813643  25.2513002  51.2292190  43.2608008
  23.9421354  50.1071330  43.8180391  23.2154518  49.9727295  43.2096883
  23.5268641  50.4148159  44.6237109  10.0655755  47.6993490  30.0581992
   9.1587210  47.4026603  30.1344706  10.3431736  47.4023308  29.1916279
  11.6817821  42.2430380  36.2126234  10.8718549  41.8977465  36.5881480
  12.3702238  41.9337924  36.8013845  13.6108369  41.3208427  37.8350530
  14.1639408  41.7403880  38.4940553  13.8478455  40.3944175  37.8773486
   8.8354540  44.5580425  30.1993972   9.6973704  44.8835324  30.4589789
   9.0204884  43.7711921  29.6867037  16.9887176  43.4308952  37.3429195
  16.4085845  44.0893756  36.9607247  16.7223109  42.6086296  36.9316612
  15.4390743  42.8314010  39.5450515  15.9390521  42.9430544  38.7364834
  16.0826350  42.5275062  40.1851323  15.7712054  45.5909042  36.3985543
  14.8837909  45.8758693  36.1805738  16.1866043  45.4302806  35.5512820
  19.1226590  45.6155563  40.1139882  19.8986980  46.1052016  40.3864499
  18.3974725  46.0413617  40.5711752  21.5599149  46.3283182  41.1713823
  22.1543640  46.0878918  40.4607131  21.6325733  45.6090313  41.7987359
  15.7453078  51.1063578  36.6135833  15.6888279  51.5632130  35.7743465
  16.2981420  50.3454263  36.4358676  19.5557884  46.8953310  37.4385953
  19.2994818  46.4949946  38.2694160  18.9310752  47.6097104  37.3136092
  23.8670222  49.6349383  39.9457244  23.3069780  49.7042573  40.7188806
  23.2613725  49.4590368  39.2256740  16.4787857  52.2968359  33.9088362
  16.4236661  52.1312631  32.9676806  15.8533913  53.0044392  34.0650552
   9.7883983  41.7976468  33.4873681   9.7762653  42.7418308  33.6441951
  10.6807405  41.6146614  33.1933142  13.6036102  38.3919245  37.7419617
  12.8368498  37.8377732  37.8876300  14.0146807  38.4641114  38.6033769
  26.8272154  54.7917299  39.7957046  27.1331030  53.9314662  39.5082961
  27.5524758  55.3834919  39.5956040  24.5326325  54.5915625  41.2186028
  24.8128079  53.9238814  41.8446455  25.3176932  54.7844720  40.7060692
  28.6928477  56.7691437  40.0853999  28.4953298  56.4606526  40.9697331
  29.3028183  57.4953076  40.2151929  24.4429857  53.7211163  37.7419617
  23.6762252  53.1669649  37.8876300  24.8540562  53.7933031  38.6033769
   3.7738732  12.6584184  29.3632506   4.4117142  12.5390932  28.6595846
   3.6559575  13.6065028  29.4220458   1.0648222  13.7646464  35.2580237
   1.0536862  13.3699263  34.3860740   1.2268861  13.0312537  35.8514008
   2.0214813  18.1318057  20.6005387   1.3702793  18.7172137  20.2139401
   2.8159176  18.6624252  20.6600424   3.3280001  10.3835638  26.4385714
   4.1143090   9.9655061  26.0876131   3.5918705  11.2881730  26.6067363
   3.4990078  15.8208489  21.1374371   2.8635911  15.8943115  21.8495276
   3.1687485  16.4102087  20.4593450   8.7288428  10.3210871  27.3418693
   9.4613600   9.7510088  27.5756522   7.9727784   9.9332472  27.7825198
   2.7445368  16.2344992  31.2009214   2.4446091  17.1370030  31.0925021
   2.3996427  15.9677175  32.0530367   6.1442512   8.7527532  28.8806652
   5.2359389   8.6842940  28.5865412   6.0930108   9.2299477  29.7088477
   8.0104158   6.9543970  30.6584525   7.3678538   7.2476503  30.0124320
   7.5059087   6.8396890  31.4637722   5.6644322  10.7007143  21.3470385
   6.5762178  10.9334530  21.1718082   5.1553969  11.2844188  20.7845463
   3.9485089  15.1231771  34.9831677   4.3568446  14.6814182  34.2386310
   3.2262351  14.5484399  35.2365870   4.2713904  15.6832962  28.7383966
   3.6422767  15.8478676  28.0360034   3.8839566  16.0974571  29.5094930
   8.1503136  16.6187400  26.0928330   7.4654174  16.9986301  25.5425363
   8.2346985  17.2282726  26.8260278   3.4515605   7.7208746  34.0146408
   3.2076537   8.4750807  33.4780684   3.7275535   8.0994094  34.8493655
   5.4054068  14.2647359  32.6923673   5.6170963  14.9079119  32.0158055
   5.3583816  13.4309675  32.2245604   6.5199896  17.1419314  30.8646031
   7.3417339  16.7399501  30.5828712   6.5162298  17.0387548  31.8162147
  14.6105889  13.4858063  27.2131002  13.8569597  12.9165461  27.0575007
  14.7453430  13.4520727  28.1601637   1.6272993  18.9795031  37.0186064
   1.1836847  18.1931410  36.7006968   2.2890207  19.1674182  36.3529954
   3.7254231  19.2597831  35.0467465   3.7072706  20.0806712  34.5547734
   4.6474151  19.1351907  35.2717606   3.3147263  11.8710638  19.9257050
   2.7993886  12.6415242  20.1645438   3.0424571  11.1975774  20.5490112
   8.2881537  14.6242993  21.8610224   7.5110980  14.2854152  21.4165386
   8.9673018  14.6295616  21.1865189   3.1033566   9.7437730  21.7516831
   2.7983702  10.0583879  22.6026975   4.0564008   9.8219150  21.7944164
   1.5479998  15.9027953  23.4009785   1.0201360  15.1680713  23.0883023
   1.0467501  16.6802630  23.1549754   6.5272844  14.0976974  28.5176832
   5.8696518  14.7876235  28.6056960   7.3313243  14.4873406  28.8610818
   5.3378303  12.4521346  26.5680773   5.8510185  13.0851338  27.0702483
   5.9879527  11.8522542  26.2024133   2.6000677  22.4305671  19.3241445
   1.9262376  22.7337367  19.9326402   2.9866499  23.2334751  18.9746902
   1.8159134   9.9270802  28.8139114   0.8981695  10.1485749  28.6560802
   2.2319277  10.0017112  27.9550821   2.5994181  11.3262218  23.9441794
   3.3466000  11.8383615  23.6348916   2.8685771  11.0046270  24.8046188
   6.1040099  17.4327348  24.6959916   5.6502426  16.5918258  24.7525107
   5.4734066  18.0688746  25.0334696   5.0473019   8.3619334  25.9260583
   4.3095775   7.8496720  26.2570826   5.2999792   7.9219716  25.1143860
   4.5473038  19.2703845  25.6309734   4.8396013  19.8308902  24.9122100
   5.0571659  19.5632406  26.3862893   2.9572297  10.5168263  33.6183817
   3.3121685  10.7439736  34.4778282   3.6044428  10.8486640  32.9961072
   8.6870034  13.6386699  24.3233146   8.5487933  13.8288295  23.3954335
   8.3306253  14.4006082  24.7801197   8.7139414  15.7063226  29.3344417
   9.1475920  15.6138515  30.1827471   9.4270994  15.6820727  28.6964433
   2.4467309  19.3065320  30.8677518   2.5004331  19.8756257  31.6355234
   1.5782090  19.4767205  30.5031555   9.5754963  15.7486927  31.8677303
   9.7690853  16.6532737  32.1136577   9.4755582  15.2894346  32.7015888
   4.6370072  15.8993670  37.4418183   4.4855578  15.6704221  36.5248267
   4.6274751  16.8564271  37.4549528   1.4055408  13.4725582  32.4264450
   2.3347468  13.6236742  32.2533417   0.9846438  13.5609603  31.5713096
   1.7548955  16.8757849  27.5851825   1.4198788  16.8358619  28.4809475
   1.2552901  16.2102565  27.1122235   4.6908147  14.2213884  17.8588885
   4.0737318  13.4960712  17.7621937   4.2224635  14.9823244  17.5155959
   6.3462279  18.9312792  35.5194665   6.2874825  18.2472012  34.8525248
   6.7481797  19.6731782  35.0675291   6.3479686  16.8952376  33.7508645
   5.4606465  16.5578298  33.8735044   6.9178237  16.1635407  33.9877410
  10.8297026  12.3060593  28.5125206  10.8186903  13.1885309  28.1419139
   9.9614406  11.9532144  28.3179743   2.3379523  21.4540662  32.8728047
   3.0507495  22.0888127  32.8003948   1.8469551  21.5504528  32.0568048
   4.0597050  15.3591915  24.4445338   3.1253328  15.4793378  24.2750043
   4.2373718  14.4564382  24.1805348   7.4469601  11.2009234  24.9795372
   7.9130053  12.0337226  24.9055675   7.8977102  10.7354216  25.6840631
   5.5145832  17.5453056  21.9781524   5.7905676  17.4309650  22.8875398
   4.6450331  17.1470540  21.9393697   5.1892722  11.7579713  31.5186168
   4.5364173  12.0055621  30.8638620   5.5673102  10.9443851  31.1848645
   2.1499896  21.7939406  25.6214338   2.3322291  20.9761062  26.0842090
   2.9732882  22.0107099  25.1839228   2.4842062  20.7207592  22.8829386
   3.0129828  20.2100046  22.2699549   2.7470281  20.4050122  23.7474920
   1.2380295  12.4999524  38.0052205   0.5620932  12.3993654  38.6754580
   2.0607929  12.3438738  38.4688202   4.8313953  18.6327709  38.0958475
   5.3753857  19.2457668  37.6013430   4.2500797  19.1907288  38.6125488
   3.1171466  21.7548427  29.2273503   2.9922605  20.9538167  28.7184448
   3.7750557  22.2494621  28.7387473   5.1806374  19.5557447  30.8553053
   4.2336709  19.4362799  30.7831380   5.5289147  18.6679945  30.9379314
   2.1852807  19.3510164  27.0557405   2.0377770  18.4226871  27.2364975
   3.0106301  19.3730254  26.5714481   5.7886929  20.1738722  28.1422278
   6.7133477  19.9681584  28.0046729   5.6202232  19.9255124  29.0511620
   5.5782245  20.6924390  23.4984369   5.7519123  20.1270812  22.7458222
   6.0711137  21.4925285  23.3163859  11.4321636  13.4560813  25.1174669
  11.8752782  12.7068138  24.7193792  10.5548147  13.4470949  24.7348401
   6.5657418  20.0091154  20.5981268   7.2608322  20.6297847  20.8168582
   6.9080568  19.1586505  20.8733646   8.4648841  17.4590860  22.1268599
   8.9900165  17.7978133  21.4017919   8.3771193  16.5237875  21.9431733
   8.1542747  18.0923763  37.4319796   7.3638291  18.0747902  36.8924296
   7.9176102  18.6312057  38.1868833   8.2740622  14.9416230  34.7452525
   8.3238627  14.7766237  35.6868048   8.1654545  14.0743489  34.3550406
   5.5644384  10.9247158  36.0611832   6.4654247  10.7853623  35.7695830
   5.6392359  11.0901613  37.0010009   9.7758819  17.3613171  34.9894547
   9.4843627  17.7243152  35.8258008   9.1630950  16.6480180  34.8107879
  10.9754501  14.9266051  27.5097117  11.8101393  15.3655855  27.6734677
  11.1113630  14.4504704  26.6905363   8.0246007  12.4845786  33.4574605
   8.5000129  12.6773432  32.6493456   7.1011572  12.5404972  33.2117988
   6.7247676   9.3611546  31.6902910   7.6765099   9.4609644  31.7115134
   6.5551126   8.5689815  32.2000995   4.7462056   6.4467129  31.8762311
   4.1511988   6.7272142  31.1808800   4.4611752   6.9361030  32.6479052
   3.8769546  20.3990056  20.6364944   4.8100219  20.3335618  20.8397819
   3.7892759  21.2346323  20.1779476   6.5057563  19.7155926  17.5968891
   6.4271194  19.3815790  18.4904649   7.3267229  20.2077694  17.5960364
   9.2035754  12.5817666  30.8045210   9.1712074  11.6433666  30.9904894
   9.8136378  12.6601702  30.0711035   1.0419085  11.4513719  16.8472414
   1.9878189  11.3219927  16.9160832   0.6633330  10.7128381  17.3241842
   9.3530242   9.3728709  30.8503493   8.8369291   8.5887166  30.6633422
  10.2370191   9.0447426  31.0150012  15.0212304  13.6433673  29.9451247
  15.7515692  13.3818961  30.5058950  14.4119249  12.9062394  29.9853315
  13.1027601  11.7841535  30.5425698  12.3760764  11.6497500  29.9342189
  12.6874888  12.0918364  31.3482416   0.9257777  15.5031465  38.3073071
   1.8460787  15.6810064  38.5013117   0.8907360  14.5587510  38.1552770
   4.9318301   7.2679247  23.1230850   4.0444156   7.5528898  22.9051044
   5.3472290   7.1073010  22.2758126   8.2832837   7.2925768  26.8385189
   9.0593227   7.7822221  27.1109806   7.5580971   7.7183822  27.2957058
  10.7205396   8.0053387  27.8959129  11.3149887   7.7649123  27.1852438
  10.7931979   7.2860518  28.5232666   4.0761514  17.0323922  17.2178870
   4.7797365  17.2373924  17.8336525   3.3524163  17.6000684  17.4827953
   4.9059325  12.7833783  23.3381140   4.8494526  13.2402334  22.4988772
   5.4587667  12.0224468  23.1603982   8.7164131   8.5723515  24.1631259
   8.4601065   8.1720151  24.9939467   8.0916999   9.2867309  24.0381398
  13.0276468  11.3119588  26.6702551  12.4676026  11.3812777  27.4434113
  12.4219972  11.1360573  25.9502047   5.9848212  17.4706451  19.2677330
   6.8193816  17.0387649  19.0854804   5.8232555  17.2988465  20.1954224
   5.6394104  13.9738564  20.6333669   5.5842908  13.8082836  19.6922113
   5.0140159  14.6814597  20.7895859   2.9540011  16.2787476  39.9587232
   3.8231171  16.4528128  39.5973867   2.4746763  17.0981893  39.8362961
  14.6132487  27.9876102  29.3632506  15.2510897  27.8682849  28.6595846
  14.4953330  28.9356946  29.4220458  11.4222193  27.9403530  29.2994031
  11.0840705  27.8244595  28.4114566  12.2911961  27.5394695  29.2795037
   7.2809009  29.7939007  25.2890922   6.7173874  29.7028944  24.5207210
   7.1661404  28.9738911  25.7693414  11.9041976  29.0938382  35.2580237
  11.8930617  28.6991180  34.3860740  12.0662616  28.3604455  35.8514008
   4.8273441  31.2890198  28.1275142   5.6194733  30.9481023  27.7121442
   5.0670091  31.3985173  29.0477296  12.8608568  33.4609974  20.6005387
  12.2096547  34.0464055  20.2139401  13.6552930  33.9916169  20.6600424
   6.7864195  30.5499111  20.9992521   7.5595071  30.0028099  20.8605397
   7.1389594  31.4143361  21.2106983   8.6249237  31.8775494  34.2059421
   8.3339103  32.7821125  34.0906087   9.2606222  31.9192021  34.9203490
   9.5505444  29.2552342  30.7960780  10.1469016  29.0308365  30.0817743
   9.6080416  28.5137088  31.3986228   9.1230473  26.7091778  18.6310971
   9.3755993  26.1873299  17.8694434   8.1855032  26.5457923  18.7337655
  14.3383833  31.1500406  21.1374371  13.7029666  31.2235033  21.8495276
  14.0081239  31.7394005  20.4593450   8.8426761  28.6119884  20.8335346
   8.7263019  27.9364787  21.5016430   8.9529021  28.1252257  20.0167499
  11.1858302  28.0730031  24.5382035  10.8216510  27.5460652  25.2494957
  12.0425418  27.6828500  24.3648521  17.0907603  19.3624363  31.8013301
  16.7590928  20.2319774  31.5774516  16.4953216  19.0460647  32.4807332
  10.8263789  23.1019930  19.5343384  10.9938192  23.9700167  19.9013855
  10.6360958  23.2647212  18.6104673  13.5839122  31.5636909  31.2009214
  13.2839846  32.4661948  31.0925021  13.2390182  31.2969092  32.0530367
   7.0351604  28.0150706  27.2345919   6.1102100  27.8826920  27.4423610
   7.2836017  28.7944925  27.7315861  16.9836266  24.0819449  28.8806652
  16.0753144  24.0134858  28.5865412  16.9323862  24.5591394  29.7088477
  10.8053010  25.5577588  20.5190051  10.6852635  26.0034639  21.3575531
  10.1105599  25.9062906  19.9603589   4.3960415  27.6583980  28.0689708
   4.5252796  27.9118459  28.9829119   3.7157866  28.2511688  27.7494363
   8.5659902  38.3281230  24.1680182   8.4883932  39.2789055  24.2468662
   7.9621546  37.9827102  24.8255108  11.0577132  25.5009095  36.8241549
  10.2810466  26.0603015  36.8144413  11.6967695  25.9865878  37.3456419
  18.8497913  22.2835888  30.6584525  18.2072293  22.5768421  30.0124320
  18.3452841  22.1688808  31.4637722   9.3123504  28.3094548  36.3859516
  10.0538189  28.8479592  36.1094339   8.6060490  28.9360837  36.5431068
  14.7878844  30.4523689  34.9831677  15.1962200  30.0106099  34.2386310
  14.0656105  29.8776316  35.2365870  11.1409914  25.3896296  32.3565234
  11.9871109  25.8135709  32.4999883  11.0808552  24.7329920  33.0503797
  15.1107659  31.0124879  28.7383966  14.4816521  31.1770594  28.0360034
  14.7233321  31.4266489  29.5094930  14.2909359  23.0500664  34.0146408
  14.0470291  23.8042724  33.4780684  14.5669290  23.4286012  34.8493655
  16.2447822  29.5939276  32.6923673  16.4564717  30.2371036  32.0158055
  16.1977570  28.7601593  32.2245604  13.8474051  22.2057097  29.5960246
  12.9858530  22.5038351  29.8876983  13.8736486  22.4227496  28.6641278
  10.6635620  30.7499288  26.0034051  11.1273966  31.0286991  25.2138674
  10.3992419  29.8482732  25.8207142   7.5559702  30.2970769  28.9413815
   8.1261059  30.7258037  28.3031299   8.1467813  30.0153354  29.6398000
   9.6004507  26.8722440  22.8123616  10.3028550  27.3243484  23.2797543
   9.2685135  26.2306259  23.4403510   8.0484868  25.4634197  37.1874826
   7.4183529  26.1450477  37.4210223   7.9420956  25.3517278  36.2427964
   3.3429840  25.1305993  28.1140750   2.5528894  25.3863521  27.6380861
   3.8341088  25.9454330  28.2192791  17.3593650  32.4711232  30.8646031
  18.1811094  32.0691419  30.5828712  17.3556053  32.3679466  31.8162147
   5.2944586  25.4950572  25.0724227   4.4975749  25.6069266  25.5907722
   5.0670178  25.8337224  24.2065117  11.1250254  32.0195275  33.0206741
  11.1894686  32.4815682  33.8564913  10.4161177  31.3892640  33.1489051
   1.6267543  25.3836483  30.5455741   1.8775582  26.2683493  30.8113317
   2.1627092  25.2041085  29.7730833  10.8398271  33.6863383  22.8885722
  10.7043946  34.5314918  23.3170569  11.3808084  33.8882660  22.1251655
   7.3265611  19.7654962  39.5500077   6.9332556  19.2121161  40.2247721
   8.1431751  20.0765541  39.9406594   4.2927669  31.2038821  23.4613647
   4.8052189  31.9982071  23.6119211   4.9450381  30.5065111  23.3947248
   6.1022553  34.3204577  25.5436400   6.2789182  35.2422542  25.3557384
   6.8979387  34.0062996  25.9730780  10.2433572  21.1812841  37.1420333
  10.9843285  21.7819995  37.0624796  10.4751495  20.4390479  36.5838376
   5.3874910  26.3669209  35.4198563   5.2728425  25.4654466  35.7205662
   4.5319428  26.6132906  35.0683380  12.4666748  34.3086949  37.0186064
  12.0230602  33.5223328  36.7006968  13.1283961  34.4966100  36.3529954
   7.2253869  35.8382751  31.5446742   7.7761294  35.7099814  30.7723736
   6.3865345  36.1377640  31.1941635  14.5647986  34.5889749  35.0467465
  14.5466461  35.4098630  34.5547734  15.4867906  34.4643824  35.2717606
  11.0221040  32.1033878  35.8890973  11.5549377  31.3422167  35.6590281
  10.4935121  31.8107530  36.6315128  14.1890735  17.2093944  31.4184615
  13.8455004  18.0995586  31.3423726  14.5569697  17.0195602  30.5554200
   2.2576585  29.5327475  24.2373217   3.0951807  29.9424483  24.0206925
   2.4354853  28.5926917  24.2073411  14.1541017  27.2002556  19.9257050
  13.6387641  27.9707160  20.1645438  13.8818326  26.5267692  20.5490112
  11.7388128  22.0452256  24.9842289  10.8829725  21.6559107  24.8047927
  12.1515080  22.1244217  24.1242074  13.2687275  19.5798600  29.3833848
  12.7652071  19.5428735  28.5701654  13.5617882  20.4891342  29.4430505
   9.5130161  19.6637329  28.3900030  10.3783158  19.4680138  28.0305920
   9.5807670  19.4347681  29.3169387  13.9427321  25.0729648  21.7516831
  13.6377456  25.3875797  22.6026975  14.8957763  25.1511068  21.7944164
  12.3873752  31.2319871  23.4009785  11.8595114  30.4972631  23.0883023
  11.8861255  32.0094547  23.1549754   7.1192480  21.8939537  25.7616397
   7.6936232  21.6714719  25.0289590   7.7063463  21.9628232  26.5144998
   7.4462067  23.9243998  19.7812282   6.6099379  24.2618685  20.1021557
   7.3066837  23.7892978  18.8439419   9.4215148  18.7680786  24.4891466
   8.7679560  18.4529803  23.8648081   9.3795622  18.1456527  25.2151289
  10.5326353  29.0500081  16.4044758   9.6253414  28.8189335  16.6035907
  11.0297385  28.2537700  16.5918740  13.4394432  37.7597588  19.3241445
  12.7656130  38.0629285  19.9326402  13.8260253  38.5626669  18.9746902
  12.6552888  25.2562720  28.8139114  11.7375450  25.4777667  28.6560802
  13.0713032  25.3309030  27.9550821  11.7114586  29.1512676  20.9268748
  10.8025805  28.8671709  21.0241218  11.7409670  29.5711755  20.0672055
  16.9433854  32.7619266  24.6959916  16.4896181  31.9210175  24.7525107
  16.3127820  33.3980664  25.0334696  15.3866793  34.5995762  25.6309734
  15.6789767  35.1600819  24.9122100  15.8965413  34.8924323  26.3862893
  15.9878400  16.4687504  26.5202353  16.2937277  15.6084867  26.2328268
  16.7131005  17.0605124  26.3201347   2.2802756  26.8718190  24.9083951
   2.0827156  26.2787551  24.1835017   1.7249420  26.5670400  25.6259889
  10.2599480  26.7641297  27.0278544  10.3148090  25.8115133  26.9521020
   9.4490682  26.9200736  27.5119842  11.4090674  30.6921420  18.2656827
  10.9710104  29.9757279  17.8062464  12.1501115  30.9197535  17.7041918
   8.1991840  25.3818356  24.7868923   7.3859706  25.6812527  25.1934115
   8.6950834  24.9874045  25.5043405  10.3500418  35.3776113  26.7203187
  10.3076597  35.6036960  25.7911719  11.2663117  35.1439488  26.8688989
  13.7966052  25.8460181  33.6183817  14.1515439  26.0731654  34.4778282
  14.4438183  26.1778558  32.9961072   7.6905915  22.9536712  30.4030158
   8.3305294  22.8125471  29.7053121   6.8583445  22.6671225  30.0268760
   8.4666219  32.2539142  26.5165150   9.2606817  31.7589463  26.3147725
   7.7557911  31.7257006  26.1532856  13.2861063  34.6357238  30.8677518
  13.3398085  35.2048174  31.6355234  12.4175845  34.8059123  30.5031555
   4.7748982  26.3982224  22.5924903   3.8446570  26.3366680  22.8094865
   4.8706454  25.8758177  21.7961544   4.6934531  22.9237037  25.1803144
   4.9541349  23.8382370  25.0712305   5.5151704  22.4561480  25.3299757
   6.1659457  24.3374794  32.3501969   6.8382510  24.1292156  31.7014618
   5.3389243  24.1396880  31.9107201  20.4148718  31.0778844  31.8677303
  20.6084608  31.9824655  32.1136577  20.3149336  30.6186264  32.7015888
  12.0685029  20.9636735  34.3667630  11.4212944  21.6626685  34.2732106
  12.8386044  21.3972879  34.7343878  15.4763827  31.2285587  37.4418183
  15.3249333  30.9996139  36.5248267  15.4668506  32.1856189  37.4549528
  12.2449163  28.8017500  32.4264450  13.1741223  28.9528660  32.2533417
  11.8240193  28.8901521  31.5713096  11.0437495  32.8268164  30.1962987
  10.9048580  32.4586949  31.0688925  10.2552091  33.3415804  30.0246945
  11.6385647  37.9277261  21.5388524  11.8137402  37.4565304  22.3534146
  10.9518435  38.5543027  21.7669784  12.5942710  32.2049767  27.5851825
  12.2592542  32.1650537  28.4809475  12.0946656  31.5394483  27.1122235
   6.5686954  27.6117397  33.1104406   6.4306752  26.8797636  33.7115945
   7.4791877  27.5226297  32.8288594  15.5301902  29.5505801  17.8588885
  14.9131072  28.8252630  17.7621937  15.0618390  30.3115162  17.5155959
   9.1969254  27.3237356  32.5988086   9.9068873  26.6830549  32.5574704
   9.1538563  27.5750251  33.5214267  17.1856033  34.2604710  35.5194665
  17.1268579  33.5763930  34.8525248  17.5875552  35.0023700  35.0675291
   7.9098188  24.3102574  34.4183725   7.3735545  23.8593313  35.0705322
   7.3214897  24.4448483  33.6754190   6.2046732  41.0766624  28.3128384
   6.4443330  41.7085148  28.9907402   5.3615928  40.7254664  28.5993743
   7.3200447  23.7691226  16.9810189   6.4429914  23.6480026  16.6172436
   7.7958200  22.9777304  16.7289078  17.1873440  32.2244294  33.7508645
  16.3000219  31.8870215  33.8735044  17.7571991  31.4927325  33.9877410
   3.6437310  23.4458582  31.5036720   3.5595498  22.8384252  30.7687130
   2.8220016  23.9367600  31.5046216  10.7174594  36.8845746  30.7169888
  10.6444765  37.6900718  31.2289192  10.2751987  37.0837712  29.8917909
  10.5064373  36.1217516  24.2272709   9.7231895  36.6639196  24.3210934
  11.2057119  36.6391496  24.6266951  13.8161024  21.9312146  26.8706915
  14.3129723  21.1782108  26.5507985  13.0448005  21.9676462  26.3050124
  13.1773277  36.7832580  32.8728047  13.8901250  37.4180045  32.8003948
  12.6863306  36.8796446  32.0568048  14.8990804  30.6883833  24.4445338
  13.9647083  30.8085295  24.2750043  15.0767473  29.7856300  24.1805348
  10.3995992  24.0729529  26.5978599  10.0293780  23.5200569  27.2859505
  10.8955085  23.4687662  26.0453599   8.2285191  34.5327024  33.6933617
   8.9294650  35.1663506  33.8463012   7.7580306  34.8741755  32.9329257
  16.3539587  32.8744973  21.9781524  16.6299431  32.7601568  22.8875398
  15.4844085  32.4762458  21.9393697  16.2580018  18.8981739  29.0186274
  15.3443098  19.1285966  29.1868481  16.6873120  18.9820183  29.8700306
  16.0286477  27.0871631  31.5186168  15.3757927  27.3347538  30.8638620
  16.4066857  26.2735769  31.1848645  12.9893651  37.1231324  25.6214338
  13.1716045  36.3052980  26.0842090  13.8126637  37.3399016  25.1839228
  13.3235816  36.0499509  22.8829386  13.8523583  35.5391964  22.2699549
  13.5864036  35.7342039  23.7474920  12.0774050  27.8291442  38.0052205
  11.4014687  27.7285571  38.6754580  12.9001684  27.6730656  38.4688202
   3.8252909  34.0663379  30.6264720   4.4106346  33.3207066  30.7592624
   3.6277747  34.3767335  31.5101384   6.6791564  37.1014626  25.6427162
   6.0101939  37.5860754  25.1591202   6.5404434  37.3483846  26.5570541
  10.8196833  39.1358369  32.2409821  11.3715141  39.2989991  33.0058906
  11.1603026  39.7262807  31.5689846   5.7961326  21.4833519  32.8431705
   5.8602652  22.3448350  32.4309103   5.7328446  20.8707521  32.1104064
   5.2713599  23.5556652  36.4904740   5.8985637  23.1733729  37.1042264
   4.4141517  23.3370854  36.8560432  15.6707707  33.9619627  38.0958475
  16.2147611  34.5749585  37.6013430  15.0894552  34.5199205  38.6125488
   2.0479141  25.3633081  22.4223095   2.3432582  24.4543759  22.3690148
   1.1467177  25.3420820  22.1004097  13.9565220  37.0840345  29.2273503
  13.8316359  36.2830085  28.7184448  14.6144311  37.5786538  28.7387473
   5.5773388  23.4389078  28.4050643   4.8559974  24.0525045  28.2658116
   6.3666644  23.9746842  28.3267289  16.0200128  34.8849365  30.8553053
  15.0730464  34.7654716  30.7831380  16.3682902  33.9971863  30.9379314
   8.3799702  20.7743504  34.6791295   8.9034104  21.0205801  35.4417604
   8.1612035  21.6063539  34.2594432   3.7766983  23.0447179  22.5462420
   3.4479689  22.1644558  22.3637526   4.1306354  22.9894847  23.4338809
  13.0246562  34.6802081  27.0557405  12.8771524  33.7518789  27.2364975
  13.8500055  34.7022172  26.5714481   6.8908806  23.3320148  22.9137897
   7.2304879  23.8606070  22.1916506   7.3380926  23.6700555  23.6896464
  16.6280684  35.5030640  28.1422278  17.5527231  35.2973501  28.0046729
  16.4595987  35.2547041  29.0511620   9.5852247  21.7157199  32.3640965
   9.2449067  20.9165012  32.7661645   8.8791253  22.0158910  31.7917799
  10.2368719  18.8006512  30.8168288  11.0594788  18.3266990  30.6947179
  10.4806782  19.5796995  31.3166975   8.8776953  21.8294770  21.1131190
   9.5985316  22.2076023  20.6094907   8.2542257  22.5483647  21.2166168
  13.0208076  22.5339919  22.0489523  13.2371690  23.4164557  21.7478351
  12.5402143  22.1426132  21.3195164   7.7607297  25.4925632  28.6260267
   7.6151878  25.8065935  29.5184549   7.2832501  26.1110533  28.0731166
   9.6203680  22.4828180  28.6741157   9.6065249  21.5869273  28.3373455
  10.3376108  22.4898844  29.3079443  11.4729811  22.9165520  30.7194284
  11.2147589  23.8382591  30.7178615  10.9414851  22.5195955  31.4094748
  16.4176000  36.0216307  23.4984369  16.5912877  35.4562730  22.7458222
  16.9104891  36.8217202  23.3163859   2.2352960  28.0330977  31.5647928
   1.6906428  28.8090785  31.6968203   3.1132309  28.3801781  31.4067050
   9.0240576  21.3642560  23.9428727   9.1456487  20.4359207  24.1419614
   8.7342619  21.3781246  23.0307042  11.8931767  19.0497471  27.0795447
  11.9153463  19.1136804  26.1247426  12.3099826  18.2101980  27.2735953
  17.4051172  35.3383072  20.5981268  18.1002077  35.9589765  20.8168582
  17.7474322  34.4878423  20.8733646   3.0218981  27.1600873  34.4578085
   2.2800717  27.3083508  35.0442716   2.7011726  27.4209138  33.5944835
  10.9662644  36.7016851  34.2558475  11.2749771  36.4565998  35.1281175
  11.7638126  36.9063490  33.7677345  10.9883256  38.8554761  26.4863852
  10.5488246  38.3631139  27.1796708  11.7391373  38.3127728  26.2455927
   3.4675595  35.0466302  26.4888480   4.2933615  34.7470073  26.1087123
   3.1169647  34.2773924  26.9378268   8.4357128  34.3992770  28.5586153
   7.8137138  33.7363475  28.2588381   9.1061995  34.4253902  27.8759801
   1.6684200  32.9652628  27.4477413   0.8316108  32.5374802  27.2661415
   1.6407846  33.1585071  28.3848205   8.5081656  22.8774558  38.1518659
   8.5569811  23.7536681  37.7696429   9.0504170  22.3351951  37.5790303
  18.9936501  33.4215681  37.4319796  18.2032045  33.4039820  36.8924296
  18.7569856  33.9603975  38.1868833  19.1134376  30.2708147  34.7452525
  19.1632381  30.1058155  35.6868048  19.0048300  29.4035406  34.3550406
   7.9970635  32.9496693  22.0344614   8.1458756  33.6332158  21.3811287
   8.8037079  32.9301783  22.5494070  16.4038139  26.2539075  36.0611832
  17.3048002  26.1145540  35.7695830  16.4786113  26.4193530  37.0010009
  10.7380944  23.6305930  34.9065018   9.8684254  23.9239496  34.6347607
  10.9740425  24.2146375  35.6272282  20.6152573  32.6905089  34.9894547
  20.3237382  33.0535070  35.8258008  20.0024705  31.9772097  34.8107879
  18.8639762  27.8137704  33.4574605  19.3393883  28.0065350  32.6493456
  17.9405327  27.8696889  33.2117988   5.7523268  28.9761871  23.0405683
   5.5069310  28.0724201  23.2385893   5.9219183  28.9779021  22.0985161
  13.4419978  19.8485547  32.4230438  13.9601922  20.5846574  32.0976927
  13.0875111  20.1549540  33.2577198   5.0218916  24.7090228  20.5391844
   4.3288161  24.7834583  19.8831880   4.7770668  23.9450572  21.0613361
  13.6932572  16.2685830  27.9431335  13.9734326  15.6009019  28.5691762
  14.4783179  16.4614925  27.4305999  11.4966041  35.4444824  19.5056361
  10.9240008  36.0635011  19.0526833  12.0698834  35.9944185  20.0396283
  17.5641431  24.6903464  31.6902910  18.5158853  24.7901561  31.7115134
  17.3944881  23.8981732  32.2000995  15.5855810  21.7759047  31.8762311
  14.9905742  22.0564060  31.1808800  15.3005507  22.2652948  32.6479052
  14.7163300  35.7281974  20.6364944  15.6493974  35.6627535  20.8397819
  14.6286513  36.5638241  20.1779476  17.3451317  35.0447844  17.5968891
  17.2664949  34.7107708  18.4904649  18.1660984  35.5369612  17.5960364
  11.8812839  26.7805636  16.8472414  12.8271944  26.6511844  16.9160832
  11.5027084  26.0420298  17.3241842  17.8534724  18.4461642  26.8099306
  17.6559545  18.1376731  27.6942638  18.4634429  19.1723281  26.9397236
  11.7651532  30.8323382  38.3073071  12.6854541  31.0101981  38.5013117
  11.7301115  29.8879428  38.1552770  10.0655756  24.7055613  16.7827299
   9.1587212  24.4088725  16.8590013  10.3431737  24.4085431  15.9161585
   0.9833697  26.0261976  27.2326345   0.6636481  25.1727284  26.9400719
   0.4367125  26.2410554  27.9884313   4.7613604  28.7424417  30.9495852
   4.9799614  29.6741525  30.9683886   5.1739378  28.3832392  31.7350656
  11.6817822  19.2492502  22.9371540  10.8718550  18.9039587  23.3126786
  12.3702239  18.9400046  23.5259152  13.6108370  18.3270549  24.5595837
  14.1639409  18.7466003  25.2185860  13.8478457  17.4006297  24.6018793
   9.6341470  24.3157623  40.3398601   9.5338196  25.2651980  40.2710692
   9.4163012  23.9875862  39.4674671   8.8354541  21.5642548  16.9239278
   9.6973705  21.8897446  17.1835096   9.0204885  20.7774044  16.4112344
  16.9887177  20.4371074  24.0674501  16.4085847  21.0955878  23.6852554
  16.7223110  19.6148419  23.6561919  15.4390744  19.8376132  26.2695822
  15.9390522  19.9492667  25.4610140  16.0826352  19.5337185  26.9096630
   9.4972740  27.7454762  39.1563663   9.0139821  28.5455122  39.3627552
   9.5833679  27.7562707  38.2031107   2.7658699  29.5783141  27.0785482
   2.7429387  29.6770829  26.1267365   3.0759336  30.4248292  27.4002648
   5.4246077  31.6359296  31.1932096   6.3789331  31.6043239  31.1262028
   5.2258601  31.1749920  32.0082322   6.0145459  30.2060412  33.7602894
   6.8338348  30.7004491  33.7837731   6.2882267  29.2892381  33.7320462
  15.7712055  22.5971165  23.1230850  14.8837911  22.8820815  22.9051044
  16.1866045  22.4364928  22.2758126   3.7796306  37.1778916  28.2102294
   3.6450774  36.4179317  27.6440292   3.3628368  37.9019816  27.7431083
  14.9155269  32.3615839  17.2178870  15.6191119  32.5665842  17.8336525
  14.1917918  32.9292601  17.4827953   6.9365432  38.0748233  28.4220737
   6.8197816  39.0193665  28.3199427   6.1157878  37.7721794  28.8106536
  16.8241966  32.7998369  19.2677330  17.6587570  32.3679567  19.0854804
  16.6626309  32.6280382  20.1954224   1.2680374  24.5398546  34.4595091
   1.9139237  24.0297500  34.9482316   1.0597525  25.2767228  35.0338516
  13.7933766  31.6079394  39.9587232  14.6624925  31.7820046  39.5973867
  13.3140517  32.4273811  39.8362961   9.7883984  18.8038591  20.2118987
   9.7762654  19.7480431  20.3687258  10.6807406  18.6208736  19.9178448
   7.9619946  38.7276495  31.6376665   8.8647193  38.7600105  31.9543160
   7.7357316  37.7976946  31.6523001   9.7173548  37.4807481  28.2986744
   8.7669179  37.4809343  28.1851116  10.0206034  36.7340216  27.7822779
  13.6036103  15.3981368  24.4664924  12.8368499  14.8439854  24.6121606
  14.0146808  15.4703236  25.3279076   5.6077865  21.6866163  38.5570105
   6.4709326  21.3302968  38.7673430   5.0343275  21.3480058  39.2445510
  25.4526241  43.3168020  29.3632506  26.0904651  43.1974767  28.6595846
  25.3347084  44.2648864  29.4220458  22.2615948  43.2695448  29.2994031
  21.9234459  43.1536513  28.4114566  23.1305716  42.8686613  29.2795037
  18.1202763  45.1230924  25.2890922  17.5567629  45.0320861  24.5207210
  18.0055158  44.3030829  25.7693414  22.7435731  44.4230300  35.2580237
  22.7324371  44.0283098  34.3860740  22.9056370  43.6896372  35.8514008
  15.6667195  46.6182116  28.1275142  16.4588487  46.2772941  27.7121442
  15.9063846  46.7277091  29.0477296  23.7002322  48.7901892  20.6005387
  23.0490302  49.3755972  20.2139401  24.4946685  49.3208087  20.6600424
  17.6257949  45.8791029  20.9992521  18.3988825  45.3320016  20.8605397
  17.9783348  46.7435278  21.2106983  19.4642992  47.2067411  34.2059421
  19.1732858  48.1113042  34.0906087  20.0999976  47.2483939  34.9203490
  20.3899199  44.5844260  30.7960780  20.9862771  44.3600282  30.0817743
  20.4474170  43.8429005  31.3986228  19.9624227  42.0383695  18.6310971
  20.2149748  41.5165217  17.8694434  19.0248786  41.8749841  18.7337655
  25.0067510  41.0419474  26.4385714  25.7930599  40.6238897  26.0876131
  25.2706214  41.9465566  26.6067363  25.1777587  46.4792324  21.1374371
  24.5423420  46.5526950  21.8495276  24.8474994  47.0685923  20.4593450
  30.4075937  40.9794707  27.3418693  31.1401109  40.4093924  27.5756522
  29.6515293  40.5916307  27.7825198  19.6820516  43.9411801  20.8335346
  19.5656774  43.2656705  21.5016430  19.7922776  43.4544175  20.0167499
  22.0252057  43.4021948  24.5382035  21.6610264  42.8752569  25.2494957
  22.8819173  43.0120417  24.3648521  21.6657544  38.4311848  19.5343384
  21.8331946  39.2992084  19.9013855  21.4754713  38.5939130  18.6104673
  24.4232877  46.8928827  31.2009214  24.1233600  47.7953866  31.0925021
  24.0783936  46.6261010  32.0530367  17.8745358  43.3442624  27.2345919
  16.9495855  43.2118838  27.4423610  18.1229772  44.1236843  27.7315861
  21.6446765  40.8869506  20.5190051  21.5246390  41.3326556  21.3575531
  20.9499353  41.2354823  19.9603589  15.2354169  42.9875897  28.0689708
  15.3646551  43.2410376  28.9829119  14.5551621  43.5803605  27.7494363
  21.8970887  40.8301013  36.8241549  21.1204221  41.3894933  36.8144413
  22.5361450  41.3157796  37.3456419  27.3431831  41.3590979  21.3470385
  28.2549687  41.5918365  21.1718082  26.8341478  41.9428023  20.7845463
  20.1517259  43.6386466  36.3859516  20.8931943  44.1771510  36.1094339
  19.4454244  44.2652755  36.5431068  25.6272598  45.7815607  34.9831677
  26.0355954  45.3398017  34.2386310  24.9049860  45.2068234  35.2365870
  25.9501413  46.3416797  28.7383966  25.3210276  46.5062511  28.0360034
  25.5627075  46.7558407  29.5094930  29.8290645  47.2771235  26.0928330
  29.1441683  47.6570136  25.5425363  29.9134494  47.8866562  26.8260278
  27.0841577  44.9231194  32.6923673  27.2958472  45.5662954  32.0158055
  27.0371325  44.0893511  32.2245604  21.5029375  46.0791205  26.0034051
  21.9667721  46.3578908  25.2138674  21.2386173  45.1774650  25.8207142
  18.3953456  45.6262687  28.9413815  18.9654813  46.0549955  28.3031299
  18.9861568  45.3445271  29.6398000  20.4398261  42.2014358  22.8123616
  21.1422304  42.6535401  23.2797543  20.1078890  41.5598176  23.4403510
  18.8878623  40.7926114  37.1874826  18.2577283  41.4742395  37.4210223
  18.7814710  40.6809196  36.2427964  14.1823595  40.4597910  28.1140750
  13.3922649  40.7155439  27.6380861  14.6734842  41.2746248  28.2192791
  28.1987405  47.8003149  30.8646031  29.0204848  47.3983337  30.5828712
  28.1949807  47.6971384  31.8162147  16.1338340  40.8242490  25.0724227
  15.3369504  40.9361184  25.5907722  15.9063933  41.1629142  24.2065117
  21.9644008  47.3487193  33.0206741  22.0288441  47.8107600  33.8564913
  21.2554932  46.7184558  33.1489051  12.4661298  40.7128401  30.5455741
  12.7169336  41.5975411  30.8113317  13.0020846  40.5333002  29.7730833
  36.2893398  44.1441898  27.2131002  35.5357106  43.5749296  27.0575007
  36.4240939  44.1104562  28.1601637  21.6792026  49.0155300  22.8885722
  21.5437700  49.8606836  23.3170569  22.2201838  49.2174578  22.1251655
  18.1659365  35.0946880  39.5500077  17.7726311  34.5413079  40.2247721
  18.9825506  35.4057459  39.9406594  15.1321423  46.5330738  23.4613647
  15.6445944  47.3273989  23.6119211  15.7844136  45.8357029  23.3947248
  16.9416308  49.6496495  25.5436400  17.1182936  50.5714459  25.3557384
  17.7373141  49.3354914  25.9730780  21.0827326  36.5104759  37.1420333
  21.8237040  37.1111912  37.0624796  21.3145249  35.7682397  36.5838376
  16.2268664  41.6961126  35.4198563  16.1122179  40.7946384  35.7205662
  15.3713182  41.9424823  35.0683380  23.3060502  49.6378867  37.0186064
  22.8624356  48.8515245  36.7006968  23.9677716  49.8258017  36.3529954
  18.0647623  51.1674668  31.5446742  18.6155048  51.0391732  30.7723736
  17.2259099  51.4669557  31.1941635  25.4041740  49.9181667  35.0467465
  25.3860215  50.7390548  34.5547734  26.3261660  49.7935742  35.2717606
  21.8614794  47.4325796  35.8890973  22.3943131  46.6714084  35.6590281
  21.3328875  47.1399448  36.6315128  13.0970340  44.8619393  24.2373217
  13.9345562  45.2716401  24.0206925  13.2748608  43.9218835  24.2073411
  24.9934772  42.5294473  19.9257050  24.4781395  43.2999078  20.1645438
  24.7212080  41.8559609  20.5490112  22.5781883  37.3744174  24.9842289
  21.7223479  36.9851024  24.8047927  22.9908835  37.4536135  24.1242074
  20.3523915  34.9929247  28.3900030  21.2176912  34.7972056  28.0305920
  20.4201424  34.7639599  29.3169387  29.9669046  45.2826828  21.8610224
  29.1898489  44.9437987  21.4165386  30.6460527  45.2879451  21.1865189
  24.7821075  40.4021565  21.7516831  24.4771211  40.7167714  22.6026975
  25.7351517  40.4802985  21.7944164  23.2267507  46.5611789  23.4009785
  22.6988869  45.8264548  23.0883023  22.7255010  47.3386465  23.1549754
  28.2060353  44.7560809  28.5176832  27.5484027  45.4460071  28.6056960
  29.0100752  45.1457241  28.8610818  17.9586235  37.2231455  25.7616397
  18.5329986  37.0006636  25.0289590  18.5457217  37.2920149  26.5144998
  27.0165812  43.1105182  26.5680773  27.5297694  43.7435174  27.0702483
  27.6667036  42.5106377  26.2024133  18.2855822  39.2535916  19.7812282
  17.4493134  39.5910602  20.1021557  18.1460591  39.1184896  18.8439419
  20.2608902  34.0972704  24.4891466  19.6073315  33.7821721  23.8648081
  20.2189376  33.4748444  25.2151289  21.3720107  44.3791999  16.4044758
  20.4647169  44.1481252  16.6035907  21.8691139  43.5829618  16.5918740
  24.2788186  53.0889506  19.3241445  23.6049885  53.3921203  19.9326402
  24.6654008  53.8918586  18.9746902  23.4946643  40.5854637  28.8139114
  22.5769204  40.8069584  28.6560802  23.9106786  40.6600948  27.9550821
  24.2781690  41.9846053  23.9441794  25.0253509  42.4967450  23.6348916
  24.5473280  41.6630106  24.8046188  22.5508341  44.4804594  20.9268748
  21.6419560  44.1963627  21.0241218  22.5803424  44.9003672  20.0672055
  27.7827608  48.0911183  24.6959916  27.3289935  47.2502093  24.7525107
  27.1521575  48.7272582  25.0334696  26.2260547  49.9287680  25.6309734
  26.5183522  50.4892737  24.9122100  26.7359168  50.2216241  26.3862893
  13.1196511  42.2010108  24.9083951  12.9220911  41.6079469  24.1835017
  12.5643175  41.8962318  25.6259889  21.0993235  42.0933214  27.0278544
  21.1541844  41.1407051  26.9521020  20.2884437  42.2492653  27.5119842
  22.2484428  46.0213337  18.2656827  21.8103858  45.3049196  17.8062464
  22.9894869  46.2489452  17.7041918  19.0385595  40.7110274  24.7868923
  18.2253460  41.0104445  25.1934115  19.5344589  40.3165963  25.5043405
  21.1894172  50.7068031  26.7203187  21.1470351  50.9328877  25.7911719
  22.1056871  50.4731406  26.8688989  30.3657543  44.2970534  24.3233146
  30.2275442  44.4872130  23.3954335  30.0093762  45.0589917  24.7801197
  18.5299669  38.2828630  30.4030158  19.1699049  38.1417389  29.7053121
  17.6977200  37.9963143  30.0268760  30.3926923  46.3647061  29.3344417
  30.8263429  46.2722351  30.1827471  31.1058503  46.3404562  28.6964433
  19.3059973  47.5831060  26.5165150  20.1000572  47.0881380  26.3147725
  18.5951666  47.0548923  26.1532856  24.1254818  49.9649156  30.8677518
  24.1791840  50.5340092  31.6355234  23.2569599  50.1351041  30.5031555
  15.6142737  41.7274142  22.5924903  14.6840325  41.6658597  22.8094865
  15.7100209  41.2050095  21.7961544  15.5328286  38.2528955  25.1803144
  15.7935103  39.1674288  25.0712305  16.3545458  37.7853397  25.3299757
  17.0053211  39.6666712  32.3501969  17.6776264  39.4584074  31.7014618
  16.1782998  39.4688798  31.9107201  31.2542472  46.4070762  31.8677303
  31.4478362  47.3116573  32.1136577  31.1543090  45.9478181  32.7015888
  26.3157581  46.5577505  37.4418183  26.1643087  46.3288057  36.5248267
  26.3062260  47.5148106  37.4549528  23.0842917  44.1309418  32.4264450
  24.0134977  44.2820577  32.2533417  22.6633947  44.2193438  31.5713096
  21.8831249  48.1560082  30.1962987  21.7442335  47.7878866  31.0688925
  21.0945845  48.6707721  30.0246945  22.4779401  53.2569178  21.5388524
  22.6531157  52.7857222  22.3534146  21.7912189  53.8834945  21.7669784
  23.4336464  47.5341685  27.5851825  23.0986297  47.4942455  28.4809475
  22.9340410  46.8686401  27.1122235  17.4080708  42.9409315  33.1104406
  17.2700506  42.2089554  33.7115945  18.3185632  42.8518215  32.8288594
  26.3695656  44.8797719  17.8588885  25.7524827  44.1544547  17.7621937
  25.9012144  45.6407079  17.5155959  20.0363009  42.6529274  32.5988086
  20.7462627  42.0122466  32.5574704  19.9932317  42.9042169  33.5214267
  28.0249788  49.5896627  35.5194665  27.9662334  48.9055848  34.8525248
  28.4269306  50.3315617  35.0675291  18.7491943  39.6394492  34.4183725
  18.2129300  39.1885230  35.0705322  18.1608651  39.7740401  33.6754190
  18.1594202  39.0983143  16.9810189  17.2823668  38.9771944  16.6172436
  18.6351955  38.3069222  16.7289078  28.0267195  47.5536211  33.7508645
  27.1393974  47.2162133  33.8735044  28.5965746  46.8219243  33.9877410
   9.6796342  43.8860303  27.0751696  10.3667382  43.5722033  26.4872711
   9.5244471  44.7901668  26.8018947  14.4831064  38.7750500  31.5036720
  14.3989253  38.1676169  30.7687130  13.6613771  39.2659518  31.5046216
  21.5568348  52.2137664  30.7169888  21.4838520  53.0192635  31.2289192
  21.1145741  52.4129630  29.8917909  21.3458128  51.4509434  24.2272709
  20.5625650  51.9931114  24.3210934  22.0450873  51.9683413  24.6266951
  32.5084535  42.9644429  28.5125206  32.4974412  43.8469144  28.1419139
  31.6401915  42.6115980  28.3179743  24.0167032  52.1124498  32.8728047
  24.7295004  52.7471963  32.8003948  23.5257060  52.2088364  32.0568048
  25.7384559  46.0175750  24.4445338  24.8040837  46.1377213  24.2750043
  25.9161227  45.1148217  24.1805348  21.2389747  39.4021446  26.5978599
  20.8687534  38.8492487  27.2859505  21.7348839  38.7979580  26.0453599
  29.1257110  41.8593070  24.9795372  29.5917562  42.6921061  24.9055675
  29.5764611  41.3938051  25.6840631  19.0678945  49.8618941  33.6933617
  19.7688405  50.4955424  33.8463012  18.5974060  50.2033673  32.9329257
  27.1933341  48.2036891  21.9781524  27.4693185  48.0893486  22.8875398
  26.3237840  47.8054376  21.9393697  23.8287405  52.4523242  25.6214338
  24.0109800  51.6344898  26.0842090  24.6520391  52.6690934  25.1839228
  24.1629571  51.3791427  22.8829386  24.6917337  50.8683882  22.2699549
  24.4257790  51.0633957  23.7474920  22.9167804  43.1583360  38.0052205
  22.2408441  43.0577489  38.6754580  23.7395438  43.0022573  38.4688202
  14.6646663  49.3955296  30.6264720  15.2500100  48.6498984  30.7592624
  14.4671502  49.7059253  31.5101384  17.5185319  52.4306544  25.6427162
  16.8495694  52.9152671  25.1591202  17.3798188  52.6775764  26.5570541
   9.2564318  41.9660896  29.3469163   9.2948418  41.4324487  30.1406281
   8.7504611  41.4396102  28.7280140  21.6590587  54.4650287  32.2409821
  22.2108895  54.6281909  33.0058906  21.9996781  55.0554725  31.5689846
  16.6355080  36.8125437  32.8431705  16.6996407  37.6740268  32.4309103
  16.5722201  36.1999439  32.1104064  16.1107353  38.8848570  36.4904740
  16.7379392  38.5025647  37.1042264  15.2535272  38.6662771  36.8560432
  26.5101462  49.2911545  38.0958475  27.0541366  49.9041503  37.6013430
  25.9288306  49.8491123  38.6125488  12.8872896  40.6924999  22.4223095
  13.1826337  39.7835677  22.3690148  11.9860932  40.6712738  22.1004097
  24.7958975  52.4132263  29.2273503  24.6710114  51.6122003  28.7184448
  25.4538066  52.9078456  28.7387473  16.4167143  38.7680995  28.4050643
  15.6953729  39.3816963  28.2658116  17.2060399  39.3038760  28.3267289
  26.8593883  50.2141283  30.8553053  25.9124218  50.0946634  30.7831380
  27.2076656  49.3263781  30.9379314  19.2193456  36.1035422  34.6791295
  19.7427858  36.3497718  35.4417604  19.0005790  36.9355456  34.2594432
  14.6160737  38.3739096  22.5462420  14.2873443  37.4936475  22.3637526
  14.9700108  38.3186765  23.4338809  23.8640316  50.0093999  27.0557405
  23.7165279  49.0810706  27.2364975  24.6893810  50.0314090  26.5714481
  17.7302560  38.6612066  22.9137897  18.0698633  39.1897987  22.1916506
  18.1774681  38.9992472  23.6896464  27.4674438  50.8322558  28.1422278
  28.3920986  50.6265419  28.0046729  27.2989741  50.5838959  29.0511620
  20.4246001  37.0449117  32.3640965  20.0842822  36.2456930  32.7661645
  19.7185008  37.3450828  31.7917799  21.0762473  34.1298429  30.8168288
  21.8988542  33.6558907  30.6947179  21.3200537  34.9088913  31.3166975
  19.7170708  37.1586688  21.1131190  20.4379070  37.5367940  20.6094907
  19.0936012  37.8775564  21.2166168  23.8601831  37.8631837  22.0489523
  24.0765445  38.7456475  21.7478351  23.3795898  37.4718050  21.3195164
  18.6001052  40.8217550  28.6260267  18.4545633  41.1357853  29.5184549
  18.1226256  41.4402450  28.0731166  20.4597435  37.8120098  28.6741157
  20.4459004  36.9161191  28.3373455  21.1769863  37.8190762  29.3079443
  27.2569754  51.3508225  23.4984369  27.4306632  50.7854648  22.7458222
  27.7498645  52.1509120  23.3163859  13.0746714  43.3622894  31.5647928
  12.5300182  44.1382702  31.6968203  13.9526064  43.7093699  31.4067050
  19.8634331  36.6934478  23.9428727  19.9850242  35.7651124  24.1419614
  19.5736373  36.7073164  23.0307042  33.1109145  44.1144648  25.1174669
  33.5540291  43.3651973  24.7193792  32.2335656  44.1054784  24.7348401
  28.2444927  50.6674990  20.5981268  28.9395831  51.2881682  20.8168582
  28.5868077  49.8170341  20.8733646  13.8612736  42.4892791  34.4578085
  13.1194472  42.6375426  35.0442716  13.5405480  42.7501056  33.5944835
  30.1436350  48.1174695  22.1268599  30.6687674  48.4561968  21.4017919
  30.0558702  47.1821710  21.9431733  21.8056399  52.0308769  34.2558475
  22.1143525  51.7857916  35.1281175  22.6031881  52.2355407  33.7677345
  21.8277011  54.1846678  26.4863852  21.3882001  53.6923057  27.1796708
  22.5785128  53.6419646  26.2455927  14.3069350  50.3758219  26.4888480
  15.1327370  50.0761991  26.1087123  13.9563402  49.6065842  26.9378268
  19.2750883  49.7284687  28.5586153  18.6530892  49.0655392  28.2588381
  19.9455750  49.7545819  27.8759801  12.5077955  48.2944546  27.4477413
  11.6709863  47.8666720  27.2661415  12.4801600  48.4876989  28.3848205
  19.3475410  38.2066475  38.1518659  19.3963566  39.0828598  37.7696429
  19.8897924  37.6643869  37.5790303  29.8330256  48.7507599  37.4319796
  29.0425800  48.7331738  36.8924296  29.5963610  49.2895892  38.1868833
  29.9528131  45.6000065  34.7452525  30.0026136  45.4350073  35.6868048
  29.8442054  44.7327324  34.3550406  18.8364390  48.2788611  22.0344614
  18.9852510  48.9624075  21.3811287  19.6430833  48.2593701  22.5494070
  31.4546328  48.0197007  34.9894547  31.1631136  48.3826987  35.8258008
  30.8418459  47.3064015  34.8107879  32.6542010  45.5849886  27.5097117
  33.4888902  46.0239690  27.6734677  32.7901139  45.1088540  26.6905363
  29.7033516  43.1429621  33.4574605  30.1787638  43.3357268  32.6493456
  28.7799081  43.1988807  33.2117988  16.5917023  44.3053788  23.0405683
  16.3463065  43.4016118  23.2385893  16.7612937  44.3070939  22.0985161
  22.3359795  50.7736741  19.5056361  21.7633762  51.3926928  19.0526833
  22.9092589  51.3236103  20.0396283  25.5557055  51.0573891  20.6364944
  26.4887728  50.9919453  20.8397819  25.4680268  51.8930158  20.1779476
  28.1845072  50.3739762  17.5968891  28.1058703  50.0399625  18.4904649
  29.0054738  50.8661530  17.5960364  30.8823263  43.2401501  30.8045210
  30.8499583  42.3017502  30.9904894  31.4923886  43.3185538  30.0711035
  22.7206594  42.1097554  16.8472414  23.6665698  41.9803762  16.9160832
  22.3420839  41.3712216  17.3241842  31.0317751  40.0312544  30.8503493
  30.5156800  39.2471001  30.6633422  31.9157700  39.7031261  31.0150012
  36.6999813  44.3017508  29.9451247  37.4303201  44.0402796  30.5058950
  36.0906758  43.5646230  29.9853315  34.7815110  42.4425370  30.5425698
  34.0548273  42.3081335  29.9342189  34.3662397  42.7502199  31.3482416
  22.6045286  46.1615300  38.3073071  23.5248296  46.3393899  38.5013117
  22.5694869  45.2171345  38.1552770  20.9049511  40.0347530  16.7827299
  19.9980966  39.7380643  16.8590013  21.1825492  39.7377348  15.9161585
  11.8227451  41.3553894  27.2326345  11.5030236  40.5019202  26.9400719
  11.2760879  41.5702472  27.9884313  15.6007359  44.0716335  30.9495852
  15.8193369  45.0033443  30.9683886  16.0133133  43.7124309  31.7350656
  22.5211577  34.5784420  22.9371540  21.7112305  34.2331505  23.3126786
  23.2095994  34.2691964  23.5259152  24.4502125  33.6562467  24.5595837
  25.0033163  34.0757920  25.2185860  24.6872211  32.7298215  24.6018793
  20.4735224  39.6449541  40.3398601  20.3731951  40.5943898  40.2710692
  20.2556766  39.3167779  39.4674671  19.6748295  36.8934466  16.9239278
  20.5367459  37.2189364  17.1835096  19.8598640  36.1065962  16.4112344
  11.6915711  44.9756805  29.2019467  10.9979183  44.5610758  28.6889421
  12.4388702  45.0177342  28.6052886  27.8280932  35.7662992  24.0674501
  27.2479601  36.4247796  23.6852554  27.5616865  34.9440337  23.6561919
  20.3366494  43.0746679  39.1563663  19.8533576  43.8747040  39.3627552
  20.4227433  43.0854624  38.2031107  13.6052454  44.9075059  27.0785482
  13.5823142  45.0062746  26.1267365  13.9153090  45.7540210  27.4002648
  16.2639832  46.9651214  31.1932096  17.2183085  46.9335156  31.1262028
  16.0652355  46.5041838  32.0082322  16.8539214  45.5352330  33.7602894
  17.6732103  46.0296409  33.7837731  17.1276021  44.6184298  33.7320462
  26.6105810  37.9263082  23.1230850  25.7231665  38.2112733  22.9051044
  27.0259799  37.7656846  22.2758126  32.3992905  38.6637223  27.8959129
  32.9937396  38.4232959  27.1852438  32.4719488  37.9444353  28.5232666
  25.7549023  47.6907757  17.2178870  26.4584874  47.8957760  17.8336525
  25.0311672  48.2584519  17.4827953  26.5846834  43.4417618  23.3381140
  26.5282035  43.8986170  22.4988772  27.1375176  42.6808303  23.1603982
  30.3951640  39.2307350  24.1631259  30.1388574  38.8303986  24.9939467
  29.7704508  39.9451144  24.0381398  34.7063977  41.9703424  26.6702551
  34.1463535  42.0396613  27.4434113  34.1007481  41.7944408  25.9502047
  27.6635721  48.1290286  19.2677330  28.4981325  47.6971485  19.0854804
  27.5020064  47.9572300  20.1954224  27.3181613  44.6322400  20.6333669
  27.2630417  44.4666671  19.6922113  26.6927668  45.3398433  20.7895859
  12.1074128  39.8690464  34.4595091  12.7532992  39.3589418  34.9482316
  11.8991279  40.6059146  35.0338516  24.6327520  46.9371311  39.9587232
  25.5018680  47.1111964  39.5973867  24.1534272  47.7565728  39.8362961
  20.6277738  34.1330509  20.2118987  20.6156408  35.0772349  20.3687258
  21.5201160  33.9500654  19.9178448  18.8013700  54.0568413  31.6376665
  19.7040947  54.0892023  31.9543160  18.5751070  53.1268863  31.6523001
  20.5567302  52.8099399  28.2986744  19.6062933  52.8101261  28.1851116
  20.8599789  52.0632134  27.7822779  16.4471619  37.0158081  38.5570105
  17.3103081  36.6594886  38.7673430  15.8737030  36.6771976  39.2445510
  36.2919996  58.6459937  29.3632506  36.9298406  58.5266685  28.6595846
  36.1740839  59.5940781  29.4220458  33.1009702  58.5987366  29.2994031
  32.7628214  58.4828430  28.4114566  33.9699470  58.1978531  29.2795037
  30.8017982  57.3675613  18.6310971  31.0543502  56.8457134  17.8694434
  29.8642541  57.2041758  18.7337655  35.8461264  56.3711391  26.4385714
  36.6324354  55.9530814  26.0876131  36.1099969  57.2757483  26.6067363
  41.2469692  56.3086624  27.3418693  41.9794863  55.7385841  27.5756522
  40.4909047  55.9208225  27.7825198  32.8645811  58.7313866  24.5382035
  32.5004018  58.2044487  25.2494957  33.7212927  58.3412335  24.3648521
  38.7695112  50.0208199  31.8013301  38.4378437  50.8903610  31.5774516
  38.1740725  49.7044483  32.4807332  32.5051298  53.7603766  19.5343384
  32.6725701  54.6284002  19.9013855  32.3148467  53.9231047  18.6104673
  38.6623775  54.7403285  28.8806652  37.7540653  54.6718693  28.5865412
  38.6111371  55.2175230  29.7088477  32.4840519  56.2161423  20.5190051
  32.3640144  56.6618474  21.3575531  31.7893108  56.5646741  19.9603589
  32.7364641  56.1592930  36.8241549  31.9597975  56.7186851  36.8144413
  33.3755204  56.6449713  37.3456419  40.5285422  52.9419723  30.6584525
  39.8859802  53.2352256  30.0124320  40.0240350  52.8272644  31.4637722
  38.1825585  56.6882896  21.3470385  39.0943441  56.9210283  21.1718082
  37.6735232  57.2719941  20.7845463  32.8197423  56.0480131  32.3565234
  33.6658618  56.4719545  32.4999883  32.7596061  55.3913755  33.0503797
  35.9696868  53.7084499  34.0146408  35.7257800  54.4626560  33.4780684
  36.2456799  54.0869847  34.8493655  35.5261560  52.8640932  29.5960246
  34.6646039  53.1622186  29.8876983  35.5523995  53.0811331  28.6641278
  31.2792016  57.5306275  22.8123616  31.9816059  57.9827319  23.2797543
  30.9472644  56.8890094  23.4403510  29.7272377  56.1218032  37.1874826
  29.0971038  56.8034313  37.4210223  29.6208465  56.0101114  36.2427964
  26.9732095  56.1534407  25.0724227  26.1763258  56.2653101  25.5907722
  26.7457687  56.4921059  24.2065117  29.0053120  50.4238798  39.5500077
  28.6120065  49.8704996  40.2247721  29.8219260  50.7349376  39.9406594
  31.9221081  51.8396677  37.1420333  32.6630794  52.4403830  37.0624796
  32.1539004  51.0974315  36.5838376  35.8678244  47.8677780  31.4184615
  35.5242513  48.7579421  31.3423726  36.2357206  47.6779437  30.5554200
  35.8328526  57.8586391  19.9257050  35.3175150  58.6290996  20.1645438
  35.5605835  57.1851527  20.5490112  33.4175637  52.7036092  24.9842289
  32.5617234  52.3142942  24.8047927  33.8302589  52.7828052  24.1242074
  34.9474784  50.2382435  29.3833848  34.4439580  50.2012570  28.5701654
  35.2405391  51.1475178  29.4430505  31.1917670  50.3221165  28.3900030
  32.0570667  50.1263973  28.0305920  31.2595179  50.0931516  29.3169387
  35.6214830  55.7313483  21.7516831  35.3164965  56.0459632  22.6026975
  36.5745272  55.8094903  21.7944164  28.7979989  52.5523373  25.7616397
  29.3723741  52.3298554  25.0289590  29.3850972  52.6212067  26.5144998
  37.8559566  58.4397099  26.5680773  38.3691448  59.0727091  27.0702483
  38.5060790  57.8398295  26.2024133  29.1249576  54.5827834  19.7812282
  28.2886888  54.9202520  20.1021557  28.9854346  54.4476813  18.8439419
  31.1002657  49.4264621  24.4891466  30.4467069  49.1113639  23.8648081
  31.0583131  48.8040362  25.2151289  34.3340397  55.9146555  28.8139114
  33.4162959  56.1361502  28.6560802  34.7500541  55.9892865  27.9550821
  35.1175445  57.3137971  23.9441794  35.8647264  57.8259368  23.6348916
  35.3867034  56.9922023  24.8046188  37.5654282  54.3495087  25.9260583
  36.8277039  53.8372473  26.2570826  37.8181056  53.9095469  25.1143860
  37.6665909  47.1271339  26.5202353  37.9724786  46.2668702  26.2328268
  38.3918514  47.7188959  26.3201347  31.9386989  57.4225132  27.0278544
  31.9935599  56.4698968  26.9521020  31.1278191  57.5784571  27.5119842
  29.8779349  56.0402192  24.7868923  29.0647215  56.3396362  25.1934115
  30.3738343  55.6457881  25.5043405  35.4753561  56.5044016  33.6183817
  35.8302948  56.7315489  34.4778282  36.1225692  56.8362393  32.9961072
  29.3693424  53.6120547  30.4030158  30.0092803  53.4709306  29.7053121
  28.5370954  53.3255061  30.0268760  26.3722040  53.5820872  25.1803144
  26.6328858  54.4966206  25.0712305  27.1939213  53.1145315  25.3299757
  27.8446966  54.9958629  32.3501969  28.5170019  54.7875992  31.7014618
  27.0176752  54.7980715  31.9107201  33.7472538  51.6220570  34.3667630
  33.1000453  52.3210520  34.2732106  34.5173553  52.0556714  34.7343878
  30.8756763  57.9821192  32.5988086  31.5856382  57.3414384  32.5574704
  30.8326072  58.2334087  33.5214267  29.5885697  54.9686410  34.4183725
  29.0523054  54.5177148  35.0705322  29.0002406  55.1032318  33.6754190
  28.9987956  54.4275061  16.9810189  28.1217423  54.3063862  16.6172436
  29.4745709  53.6361139  16.7289078  25.3224819  54.1042417  31.5036720
  25.2383007  53.4968087  30.7687130  24.5007525  54.5951436  31.5046216
  35.4948533  52.5895981  26.8706915  35.9917232  51.8365943  26.5507985
  34.7235514  52.6260298  26.3050124  32.0783501  54.7313364  26.5978599
  31.7081289  54.1784404  27.2859505  32.5742594  54.1271497  26.0453599
  39.9650865  57.1884987  24.9795372  40.4311317  58.0212979  24.9055675
  40.4158365  56.7229969  25.6840631  37.9367527  49.5565574  29.0186274
  37.0230607  49.7869801  29.1868481  38.3660629  49.6404018  29.8700306
  37.7073986  57.7455466  31.5186168  37.0545436  57.9931374  30.8638620
  38.0854366  56.9319605  31.1848645  33.7561559  58.4875277  38.0052205
  33.0802196  58.3869407  38.6754580  34.5789193  58.3314491  38.4688202
  27.4748835  52.1417355  32.8431705  27.5390161  53.0032186  32.4309103
  27.4115955  51.5291356  32.1104064  26.9501107  54.2140487  36.4904740
  27.5773146  53.8317564  37.1042264  26.0929026  53.9954689  36.8560432
  27.2560897  54.0972913  28.4050643  26.5347483  54.7108881  28.2658116
  28.0454153  54.6330678  28.3267289  30.0587211  51.4327339  34.6791295
  30.5821613  51.6789636  35.4417604  29.8399544  52.2647374  34.2594432
  25.4554492  53.7031014  22.5462420  25.1267198  52.8228393  22.3637526
  25.8093863  53.6478683  23.4338809  28.5696315  53.9903984  22.9137897
  28.9092387  54.5189905  22.1916506  29.0168435  54.3284390  23.6896464
  31.2639756  52.3741034  32.3640965  30.9236576  51.5748848  32.7661645
  30.5578762  52.6742745  31.7917799  31.9156228  49.4590347  30.8168288
  32.7382297  48.9850825  30.6947179  32.1594291  50.2380831  31.3166975
  30.5564462  52.4878605  21.1131190  31.2772825  52.8659858  20.6094907
  29.9329766  53.2067482  21.2166168  34.6995585  53.1923754  22.0489523
  34.9159199  54.0748392  21.7478351  34.2189652  52.8009968  21.3195164
  29.4394806  56.1509468  28.6260267  29.2939387  56.4649771  29.5184549
  28.9620010  56.7694368  28.0731166  31.2991189  53.1412016  28.6741157
  31.2852758  52.2453109  28.3373455  32.0163617  53.1482679  29.3079443
  33.1517320  53.5749356  30.7194284  32.8935098  54.4966426  30.7178615
  32.6202360  53.1779790  31.4094748  30.7028085  52.0226396  23.9428727
  30.8243996  51.0943042  24.1419614  30.4130128  52.0365082  23.0307042
  33.5719276  49.7081306  27.0795447  33.5940972  49.7720639  26.1247426
  33.9887335  48.8685815  27.2735953  30.1869165  53.5358393  38.1518659
  30.2357320  54.4120516  37.7696429  30.7291679  52.9935786  37.5790303
  38.0825648  56.9122911  36.0611832  38.9835511  56.7729376  35.7695830
  38.1573622  57.0777366  37.0010009  32.4168453  54.2889766  34.9065018
  31.5471763  54.5823332  34.6347607  32.6527934  54.8730211  35.6272282
  35.1207487  50.5069383  32.4230438  35.6389431  51.2430409  32.0976927
  34.7662620  50.8133376  33.2577198  26.7006425  55.3674064  20.5391844
  26.0075670  55.4418419  19.8831880  26.4558177  54.6034407  21.0613361
  35.3720081  46.9269665  27.9431335  35.6521835  46.2592854  28.5691762
  36.1570688  47.1198761  27.4305999  39.2428940  55.3487299  31.6902910
  40.1946362  55.4485397  31.7115134  39.0732390  54.5565568  32.2000995
  37.2643319  52.4342882  31.8762311  36.6693251  52.7147895  31.1808800
  36.9793016  52.9236783  32.6479052  33.5600348  57.4389472  16.8472414
  34.5059453  57.3095680  16.9160832  33.1814593  56.7004134  17.3241842
  41.8711506  55.3604462  30.8503493  41.3550554  54.5762919  30.6633422
  42.7551454  55.0323179  31.0150012  39.5322233  49.1045478  26.8099306
  39.3347054  48.7960566  27.6942638  40.1421938  49.8307117  26.9397236
  31.7443265  55.3639448  16.7827299  30.8374721  55.0672561  16.8590013
  32.0219246  55.0669266  15.9161585  33.3605331  49.9076338  22.9371540
  32.5506059  49.5623423  23.3126786  34.0489748  49.5983882  23.5259152
  35.2895879  48.9854385  24.5595837  35.8426918  49.4049838  25.2185860
  35.5265966  48.0590133  24.6018793  31.3128979  54.9741458  40.3398601
  31.2125705  55.9235815  40.2710692  31.0950521  54.6459697  39.4674671
  30.5142050  52.2226383  16.9239278  31.3761214  52.5481282  17.1835096
  30.6992394  51.4357879  16.4112344  38.6674686  51.0954910  24.0674501
  38.0873355  51.7539714  23.6852554  38.4010619  50.2732254  23.6561919
  37.1178253  50.4959967  26.2695822  37.6178031  50.6076502  25.4610140
  37.7613861  50.1921020  26.9096630  37.4499564  53.2555000  23.1230850
  36.5625419  53.5404651  22.9051044  37.8653554  53.0948764  22.2758126
  40.8014101  53.2801521  26.8385189  41.5774491  53.7697974  27.1109806
  40.0762235  53.7059575  27.2957058  43.2386659  53.9929140  27.8959129
  43.8331150  53.7524876  27.1852438  43.3113243  53.2736271  28.5232666
  37.4240588  58.7709536  23.3381140  37.3675790  59.2278087  22.4988772
  37.9768931  58.0100221  23.1603982  41.2345394  54.5599268  24.1631259
  40.9782328  54.1595904  24.9939467  40.6098262  55.2743062  24.0381398
  31.4671493  49.4622426  20.2118987  31.4550163  50.4064266  20.3687258
  32.3594915  49.2792572  19.9178448  35.2823612  46.0565203  24.4664924
  34.5156008  45.5023690  24.6121606  35.6934317  46.1287072  25.3279076
  27.2865373  52.3449999  38.5570105  28.1496835  51.9886804  38.7673430
  26.7130784  52.0063894  39.2445510  14.6132488   4.9938225  16.0877813
  15.2510898   4.8744972  15.3841153  14.4953331   5.9419069  16.1465765
  11.4222194   4.9465653  16.0239338  11.0840706   4.8306717  15.1359873
  12.2911963   4.5456818  16.0040344  11.9041977   6.1000505  21.9825543
  11.8930618   5.7053303  21.1106047  12.0662617   5.3666577  22.5759315
   8.6249239   8.8837616  20.9304727   8.3339105   9.7883247  20.8151393
   9.2606223   8.9254144  21.6448797   9.5505445   6.2614465  17.5206087
  10.1469018   6.0370487  16.8063050   9.6080417   5.5199210  18.1231535
  19.5682184   2.6564912  14.0664000  20.3007356   2.0864129  14.3001829
  18.8121540   2.2686512  14.5070505  13.5839124   8.5699032  17.9254521
  13.2839847   9.4724071  17.8170328  13.2390183   8.3031215  18.7775674
  16.9836268   1.0881572  15.6051958  16.0753145   1.0196980  15.3110719
  16.9323863   1.5653517  16.4333784   8.5659904  15.3343352  10.8925489
   8.4883933  16.2851177  10.9713969   7.9621547  14.9889225  11.5500415
  11.0577133   2.5071218  23.5486855  10.2810467   3.0665138  23.5389720
  11.6967696   2.9928001  24.0701726  18.8497914  -0.7101990  17.3829832
  18.2072294  -0.4169456  16.7369627  18.3452842  -0.8249069  18.1883029
   9.3123506   5.3156671  23.1104822  10.0538190   5.8541715  22.8339646
   8.6060491   5.9422960  23.2676374  14.7878845   7.4585811  21.7076984
  15.1962201   7.0168222  20.9631616  14.0656107   6.8838439  21.9611177
  11.1409915   2.3958418  19.0810541  11.9871110   2.8197832  19.2245190
  11.0808553   1.7392043  19.7749104  15.1107660   8.0187002  15.4629273
  14.4816522   8.1832716  14.7605341  14.7233322   8.4328612  16.2340237
  18.9896892   8.9541440  12.8173637  18.3047930   9.3340341  12.2670670
  19.0740741   9.5636767  13.5505584  14.2909361   0.0562787  20.7391715
  14.0470292   0.8104847  20.2025990  14.5669291   0.4348134  21.5738962
  16.2447823   6.6001399  19.4168980  16.4564719   7.2433159  18.7403361
  16.1977572   5.7663715  18.9490910   7.5559703   7.3032892  15.6659121
   8.1261060   7.7320160  15.0276606   8.1467815   7.0215476  16.3643307
  17.3593651   9.4773354  17.5891337  18.1811095   9.0753542  17.3074019
  17.3556054   9.3741589  18.5407453  11.1250255   9.0257398  19.7452048
  11.1894687   9.4877805  20.5810220  10.4161179   8.3954763  19.8734358
  25.4499644   5.8212103  13.9376309  24.6963353   5.2519501  13.7820313
  25.5847186   5.7874767  14.8846944  12.4666749  11.3149072  23.7431370
  12.0230603  10.5285450  23.4252275  13.1283962  11.5028222  23.0775261
   7.2253870  12.8444873  18.2692049   7.7761295  12.7161937  17.4969043
   6.3865346  13.1439762  17.9186942  14.5647987  11.5951872  21.7712772
  14.5466462  12.4160753  21.2793041  15.4867907  11.4705947  21.9962913
  11.0221041   9.1096001  22.6136280  11.5549378   8.3484289  22.3835588
  10.4935122   8.8169653  23.3560434  17.3666600   6.4331014  15.2422138
  16.7090274   7.1230275  15.3302267  18.1706999   6.8227446  15.5856125
  16.1772059   4.7875387  13.2926080  16.6903940   5.4205379  13.7947790
  16.8273282   4.1876582  12.9269440  16.9433855   9.7681388  11.4205223
  16.4896182   8.9272298  11.4770413  16.3127821  10.4042787  11.7580003
  15.3866794  11.6057885  12.3555041  15.6789768  12.1662942  11.6367406
  15.8965415  11.8986446  13.1108200  10.3500419  12.3838236  13.4448494
  10.3076598  12.6099082  12.5157026  11.2663118  12.1501611  13.5934295
  13.7966053   2.8522303  20.3429123  14.1515441   3.0793777  21.2023589
  14.4438184   3.1840680  19.7206379  19.5533170   8.0417266  16.0589724
  19.9869676   7.9492555  16.9072778  20.2664750   8.0174767  15.4209740
  13.2861064  11.6419360  17.5922824  13.3398087  12.2110297  18.3600540
  12.4175846  11.8121246  17.2276862  20.4148719   8.0840967  18.5922609
  20.6084609   8.9886778  18.8381884  20.3149337   7.6248386  19.4261194
  15.4763828   8.2347710  24.1663490  15.3249334   8.0058261  23.2493573
  15.4668507   9.1918311  24.1794835  12.2449164   5.8079623  19.1509756
  13.1741224   5.9590782  18.9778724  11.8240194   5.8963643  18.2958403
  11.0437496   9.8330287  16.9208294  10.9048582   9.4649071  17.7934232
  10.2552092  10.3477926  16.7492252  12.5942711   9.2111890  14.3097132
  12.2592544   9.1712660  15.2054782  12.0946657   8.5456606  13.8367542
   9.1969256   4.3299479  19.3233392   9.9068874   3.6892671  19.2820011
   9.1538564   4.5812374  20.2459573  17.1856034  11.2666832  22.2439972
  17.1268581  10.5826052  21.5770555  17.5875553  12.0085822  21.7920598
   6.2046733  18.0828746  15.0373691   6.4443331  18.7147270  15.7152709
   5.3615930  17.7316786  15.3239050  17.1873442   9.2306416  20.4753951
  16.3000220   8.8932338  20.5980350  17.7571993   8.4989448  20.7122717
  10.7174595  13.8907869  17.4415195  10.6444767  14.6962840  17.9534499
  10.2751988  14.0899834  16.6163216  10.5064375  13.1279639  10.9518016
   9.7231897  13.6701319  11.0456241  11.2057120  13.6453618  11.3512257
  21.6690782   4.6414634  15.2370513  21.6580658   5.5239349  14.8664446
  20.8008162   4.2886184  15.0425050  13.1773279  13.7894703  19.5973353
  13.8901251  14.4242167  19.5249255  12.6863307  13.8858569  18.7813355
   8.2285192  11.5389146  20.4178924   8.9294652  12.1725629  20.5708318
   7.7580307  11.8803878  19.6574563  16.0286478   4.0933754  18.2431474
  15.3757928   4.3409661  17.5883927  16.4066858   3.2797892  17.9093952
  12.9893652  14.1293447  12.3459645  13.1716047  13.3115103  12.8087397
  13.8126638  14.3461139  11.9084535  13.3235817  13.0561632   9.6074693
  13.8523584  12.5454086   8.9944855  13.5864037  12.7404162  10.4720226
  12.0774051   4.8353565  24.7297511  11.4014688   4.7347694  25.3999887
  12.9001685   4.6792778  25.1933509   3.8252910  11.0725501  17.3510027
   4.4106347  10.3269189  17.4837931   3.6277749  11.3829458  18.2346691
   6.6791565  14.1076749  12.3672469   6.0101941  14.5922876  11.8836509
   6.5404435  14.3545969  13.2815848  10.8196834  16.1420492  18.9655127
  11.3715142  16.3052114  19.7304213  11.1603027  16.7324930  18.2935152
  15.6707708  10.9681750  24.8203782  16.2147612  11.5811708  24.3258737
  15.0894553  11.5261328  25.3370795  13.9565221  14.0902468  15.9518810
  13.8316361  13.2892207  15.4429755  14.6144312  14.5848661  15.4632780
  16.0200130  11.8911488  17.5798360  15.0730465  11.7716839  17.5076686
  16.3682903  11.0033986  17.6624621  13.0246563  11.6864204  13.7802712
  12.8771525  10.7580911  13.9610282  13.8500056  11.7084295  13.2959787
  16.6280685  12.5092763  14.8667585  17.5527232  12.3035624  14.7292036
  16.4595988  12.2609164  15.7756926  16.4176001  13.0278430  10.2229676
  16.5912879  12.4624853   9.4703529  16.9104892  13.8279325  10.0409166
  22.2715392   5.7914853  11.8419976  22.7146538   5.0422178  11.4439099
  21.3941902   5.7824989  11.4593708  10.9662645  13.7078974  20.9803782
  11.2749772  13.4628120  21.8526481  11.7638127  13.9125612  20.4922652
  10.9883257  15.8616883  13.2109158  10.5488248  15.3693262  13.9042015
  11.7391374  15.3189851  12.9701234   8.4357130  11.4054892  15.2831460
   7.8137139  10.7425597  14.9833688   9.1061996  11.4316024  14.6005108
  18.9936503  10.4277804  24.1565103  18.2032046  10.4101943  23.6169603
  18.7569857  10.9666097  24.9114140  19.1134378   7.2770270  21.4697832
  19.1632383   7.1120277  22.4113354  19.0048301   6.4097529  21.0795712
  16.4038140   3.2601198  22.7857138  17.3048003   3.1207663  22.4941136
  16.4786115   3.4255653  23.7255316  20.6152575   9.6967212  21.7139853
  20.3237383  10.0597192  22.5503314  20.0024706   8.9834220  21.5353185
  21.8148257   7.2620091  14.2342423  22.6495148   7.7009895  14.3979984
  21.9507386   6.7858745  13.4150669  18.8639763   4.8199826  20.1819911
  19.3393884   5.0127472  19.3738763  17.9405328   4.8759012  19.9363295
  17.5641432   1.6965586  18.4148217  18.5158855   1.7963684  18.4360441
  17.3944882   0.9043855  18.9246301  15.5855811  -1.2178831  18.6007618
  14.9905743  -0.9373818  17.9054106  15.3005508  -0.7284930  19.3724359
  20.0429510   4.9171706  17.5290516  20.0105830   3.9787707  17.7150200
  20.6530133   4.9955743  16.7956341  20.1923998   1.7082749  17.5748800
  19.6763047   0.9241206  17.3878728  21.0763947   1.3801466  17.7395319
  25.8606059   5.9787713  16.6696553  26.5909448   5.7173001  17.2304257
  25.2513005   5.2416435  16.7098621  23.9421357   4.1195575  17.2671004
  23.2154520   3.9851540  16.6587496  23.5268643   4.4272404  18.0727722
  11.7651533   7.8385505  25.0318377  12.6854542   8.0164104  25.2258424
  11.7301116   6.8941550  24.8798077   4.7613606   5.7486540  17.6741159
   4.9799615   6.6803648  17.6929192   5.1739379   5.3894514  18.4595962
   9.4972741   4.7516884  25.8808969   9.0139823   5.5517244  26.0872858
   9.5833680   4.7624829  24.9276413   5.4246078   8.6421419  17.9177403
   6.3789332   8.6105361  17.8507335   5.2258602   8.1812043  18.7327629
   6.0145461   7.2122535  20.4848201   6.8338350   7.7066614  20.5083038
   6.2882268   6.2954503  20.4565768  21.5599151   0.3407428  14.6204436
  22.1543642   0.1003164  13.9097744  21.6325735  -0.3785442  15.2477972
   3.7796307  14.1841039  14.9347601   3.6450775  13.4241439  14.3685599
   3.3628369  14.9081938  14.4676390  23.8670224   3.6473628  13.3947857
  23.3069782   3.7166818  14.1679419  23.2613728   3.4714613  12.6747353
   6.9365433  15.0810356  15.1466044   6.8197817  16.0255788  15.0444734
   6.1157879  14.7783917  15.5351843  13.7933767   8.6141516  26.6832538
  14.6624927   8.7882169  26.3219173  13.3140518   9.4335933  26.5608268
   7.9619947  15.7338617  18.3621972   8.8647194  15.7662228  18.6788467
   7.7357317  14.8039068  18.3768308   9.7173549  14.4869604  15.0232051
   8.7669180  14.4871466  14.9096423  10.0206035  13.7402339  14.5068085
  25.4526243  20.3230142  16.0877813  26.0904653  20.2036890  15.3841153
  25.3347086  21.2710986  16.1465765  22.2615949  20.2757570  16.0239338
  21.9234461  20.1598635  15.1359873  23.1305717  19.8748736  16.0040344
  18.1202765  22.1293047  12.0136229  17.5567630  22.0382984  11.2452516
  18.0055160  21.3092951  12.4938721  15.6667197  23.6244238  14.8520449
  16.4588489  23.2835063  14.4366748  15.9063847  23.7339214  15.7722602
  23.7002323  25.7964015   7.3250694  23.0490303  26.3818095   6.9384707
  24.4946686  26.3270209   7.3845731  17.6257951  22.8853152   7.7237828
  18.3988827  22.3382139   7.5850704  17.9783349  23.7497401   7.9352289
  20.3899200  21.5906383  17.5206087  20.9862772  21.3662405  16.8063050
  20.4474171  20.8491128  18.1231535  19.9624228  19.0445818   5.3556278
  20.2149749  18.5227339   4.5939741  19.0248787  18.8811963   5.4582961
  25.0067511  18.0481596  13.1631021  25.7930600  17.6301019  12.8121438
  25.2706216  18.9527688  13.3312669  25.1777589  23.4854447   7.8619678
  24.5423422  23.5589073   8.5740582  24.8474995  24.0748045   7.1838757
  30.4075938  17.9856829  14.0664000  31.1401110  17.4156046  14.3001829
  29.6515294  17.5978430  14.5070505  19.6820517  20.9473924   7.5580653
  19.5656775  20.2718827   8.2261737  19.7922777  20.4606298   6.7412806
  22.0252058  20.4084071  11.2627342  21.6610265  19.8814692  11.9740263
  22.8819174  20.0182540  11.0893827  27.9301359  11.6978404  18.5258608
  27.5984683  12.5673814  18.3019823  27.3346972  11.3814688  19.2052639
  21.6657545  15.4373971   6.2588690  21.8331947  16.3054207   6.6259162
  21.4754714  15.6001252   5.3349980  24.4232878  23.8990950  17.9254521
  24.1233601  24.8015988  17.8170328  24.0783938  23.6323133  18.7775674
  17.8745360  20.3504746  13.9591225  16.9495856  20.2180960  14.1668917
  18.1229773  21.1298966  14.4561168  27.8230022  16.4173490  15.6051958
  26.9146899  16.3488898  15.3110719  27.7717618  16.8945435  16.4333784
  21.6446766  17.8931628   7.2435357  21.5246391  18.3388679   8.0820838
  20.9499354  18.2416946   6.6848895  15.2354171  19.9938020  14.7935014
  15.3646552  20.2472499  15.7074426  14.5551622  20.5865728  14.4739669
  19.4053658  30.6635270  10.8925489  19.3277688  31.6143095  10.9713969
  18.8015302  30.3181142  11.5500415  29.6891668  14.6189928  17.3829832
  29.0466049  14.9122461  16.7369627  29.1846597  14.5042848  18.1883029
  27.3431832  18.3653101   8.0715691  28.2549688  18.5980488   7.8963389
  26.8341479  18.9490145   7.5090770  25.9501414  23.3478920  15.4629273
  25.3210277  23.5124634  14.7605341  25.5627076  23.7620529  16.2340237
  29.8290646  24.2833358  12.8173637  29.1441684  24.6632259  12.2670670
  29.9134496  24.8928684  13.5505584  25.1303115  15.3854704  20.7391715
  24.8864047  16.1396765  20.2025990  25.4063046  15.7640052  21.5738962
  27.0841578  21.9293317  19.4168980  27.2958473  22.5725077  18.7403361
  27.0371326  21.0955633  18.9490910  24.6867807  14.5411137  16.3205552
  23.8252286  14.8392391  16.6122290  24.7130241  14.7581536  15.3886585
  21.5029376  23.0853328  12.7279358  21.9667722  23.3641031  11.9383980
  21.2386174  22.1836772  12.5452449  18.3953457  22.6324809  15.6659121
  18.9654814  23.0612078  15.0276606  18.9861569  22.3507394  16.3643307
  20.4398262  19.2076480   9.5368923  21.1422306  19.6597524  10.0042849
  20.1078891  18.5660299  10.1648816  18.8878624  17.7988237  23.9120132
  18.2577284  18.4804518  24.1455529  18.7814712  17.6871318  22.9673271
  14.1823596  17.4660033  14.8386057  13.3922650  17.7217561  14.3626167
  14.6734844  18.2808371  14.9438097  28.1987406  24.8065272  17.5891337
  29.0204850  24.4045459  17.3074019  28.1949809  24.7033506  18.5407453
  16.1338342  17.8304612  11.7969533  15.3369505  17.9423306  12.3153029
  15.9063934  18.1691264  10.9310424  12.4661299  17.7190523  17.2701047
  12.7169338  18.6037533  17.5358623  13.0020848  17.5395125  16.4976139
  36.2893399  21.1504021  13.9376309  35.5357107  20.5811419  13.7820313
  36.4240940  21.1166685  14.8846944  21.6792027  26.0217423   9.6131028
  21.5437702  26.8668959  10.0415876  22.2201839  26.2236700   8.8496962
  18.1659367  12.1009003  26.2745383  17.7726312  11.5475201  26.9493028
  18.9825507  12.4119581  26.6651901  15.1321424  23.5392861  10.1858953
  15.6445945  24.3336111  10.3364518  15.7844137  22.8419151  10.1192555
  16.9416309  26.6558617  12.2681707  17.1182937  27.5776582  12.0802690
  17.7373143  26.3417036  12.6976086  21.0827328  13.5166882  23.8665640
  21.8237041  14.1174035  23.7870103  21.3145250  12.7744520  23.3083683
  16.2268666  18.7023249  22.1443870  16.1122181  17.8008506  22.4450969
  15.3713183  18.9486946  21.7928686  18.0647624  28.1736791  18.2692049
  18.6155050  28.0453854  17.4969043  17.2259100  28.4731680  17.9186942
  25.0284490   9.5447985  18.1429922  24.6848760  10.4349626  18.0669032
  25.3963453   9.3549642  17.2799507  13.0970341  21.8681515  10.9618524
  13.9345563  22.2778524  10.7452232  13.2748609  20.9280957  10.9318718
  24.9934773  19.5356596   6.6502357  24.4781397  20.3061200   6.8890744
  24.7212082  18.8621732   7.2735418  22.5781884  14.3806297  11.7087595
  21.7223481  13.9913147  11.5293234  22.9908836  14.4598257  10.8487381
  24.1081031  11.9152640  16.1079155  23.6045826  11.8782775  15.2946960
  24.4011638  12.8245383  16.1675812  20.3523917  11.9991370  15.1145337
  21.2176914  11.8034178  14.7551226  20.4201426  11.7701721  16.0414693
  29.9669047  22.2888950   8.5855530  29.1898490  21.9500110   8.1410692
  30.6460528  22.2941574   7.9110495  24.7821076  17.4083688   8.4762138
  24.4771212  17.7229837   9.3272281  25.7351518  17.4865108   8.5189471
  23.2267508  23.5673911  10.1255092  22.6988870  22.8326671   9.8128329
  22.7255011  24.3448588   9.8795060  28.2060354  21.7622932  15.2422138
  27.5484029  22.4522193  15.3302267  29.0100753  22.1519364  15.5856125
  17.9586236  14.2293578  12.4861704  18.5329988  14.0068759  11.7534896
  18.5457218  14.2982272  13.2390305  27.0165813  20.1167304  13.2926080
  27.5297695  20.7497296  13.7947790  27.6667037  19.5168500  12.9269440
  18.2855823  16.2598039   6.5057589  17.4493135  16.5972725   6.8266864
  18.1460593  16.1247018   5.5684726  20.2608904  11.1034826  11.2136773
  19.6073316  10.7883844  10.5893388  20.2189378  10.4810567  11.9396596
  21.3720108  21.3854121   3.1290065  20.4647170  21.1543375   3.3281214
  21.8691140  20.5891741   3.3164047  24.2788187  30.0951629   6.0486751
  23.6049886  30.3983325   6.6571709  24.6654009  30.8980709   5.6992208
  23.4946644  17.5916760  15.5384421  22.5769205  17.8131707  15.3806109
  23.9106788  17.6663070  14.6796128  24.2781692  18.9908176  10.6687101
  25.0253511  19.5029573  10.3594223  24.5473281  18.6692228  11.5291494
  22.5508342  21.4866716   7.6514055  21.6419561  21.2025749   7.7486525
  22.5803426  21.9065795   6.7917362  27.7827609  25.0973306  11.4205223
  27.3289936  24.2564216  11.4770413  27.1521576  25.7334704  11.7580003
  26.7260529  16.0265292  12.6505890  25.9883286  15.5142678  12.9816133
  26.9787302  15.5865673  11.8389167  26.2260548  26.9349803  12.3555041
  26.5183523  27.4954860  11.6367406  26.7359169  27.2278364  13.1108200
  26.8272156   8.8041544  13.2447659  27.1331033   7.9438907  12.9573574
  27.5524761   9.3959164  13.0446653  13.1196512  19.2072230  11.6329257
  12.9220912  18.6141591  10.9080324  12.5643176  18.9024441  12.3505196
  21.0993236  19.0995337  13.7523850  21.1541846  18.1469173  13.6766327
  20.2884438  19.2554776  14.2365149  22.2484430  23.0275460   4.9902134
  21.8103860  22.3111319   4.5307771  22.9894871  23.2551575   4.4287225
  19.0385596  17.7172397  11.5114229  18.2253461  18.0166567  11.9179421
  19.5344590  17.3228085  12.2288712  21.1894174  27.7130154  13.4448494
  21.1470352  27.9391000  12.5157026  22.1056873  27.4793528  13.5934295
  30.3657544  21.3032657  11.0478452  30.2275443  21.4934253  10.1199641
  30.0093763  22.0652040  11.5046503  18.5299671  15.2890752  17.1275464
  19.1699050  15.1479511  16.4298428  17.6977201  15.0025266  16.7514066
  30.3926924  23.3709184  16.0589724  30.8263431  23.2784473  16.9072778
  31.1058505  23.3466685  15.4209740  19.3059974  24.5893183  13.2410457
  20.1000573  24.0943503  13.0393032  18.5951667  24.0611046  12.8778162
  15.6142738  18.7336264   9.3170209  14.6840326  18.6720720   9.5340172
  15.7100210  18.2112217   8.5206851  15.5328287  15.2591077  11.9048451
  15.7935104  16.1736410  11.7957612  16.3545459  14.7915520  12.0545064
  17.0053212  16.6728834  19.0747276  17.6776266  16.4646197  18.4259925
  16.1782999  16.4750920  18.6352508  31.2542474  23.4132885  18.5922609
  31.4478364  24.3178695  18.8381884  31.1543092  22.9540304  19.4261194
  22.9078784  13.2990775  21.0912937  22.2606699  13.9980725  20.9977413
  23.6779800  13.7326919  21.4589185  21.8831250  25.1622205  16.9208294
  21.7442336  24.7940989  17.7934232  21.0945847  25.6769844  16.7492252
  22.4779402  30.2631301   8.2633830  22.6531158  29.7919344   9.0779453
  21.7912190  30.8897067   8.4915091  23.4336466  24.5403807  14.3097132
  23.0986298  24.5004577  15.2054782  22.9340411  23.8748523  13.8367542
  17.4080710  19.9471437  19.8349713  17.2700508  19.2151676  20.4361252
  18.3185633  19.8580337  19.5533901  26.3695657  21.8859842   4.5834191
  25.7524828  21.1606670   4.4867244  25.9012146  22.6469202   4.2401266
  18.7491944  16.6456615  21.1429032  18.2129301  16.1947353  21.7950628
  18.1608653  16.7802523  20.3999496  17.0440488  33.4120664  15.0373691
  17.2837086  34.0439188  15.7152709  16.2009684  33.0608704  15.3239050
   9.6796343  20.8922426  13.7997003  10.3667383  20.5784156  13.2118018
   9.5244472  21.7963790  13.5264254  14.4831065  15.7812622  18.2282026
  14.3989254  15.1738292  17.4932436  13.6613772  16.2721641  18.2291523
  21.5568350  29.2199786  17.4415195  21.4838521  30.0254758  17.9534499
  21.1145743  29.4191752  16.6163216  21.3458129  28.4571556  10.9518016
  20.5625651  28.9993237  11.0456241  22.0450874  28.9745536  11.3512257
  24.6554779  14.2666186  13.5952221  25.1523479  13.5136148  13.2753292
  23.8841761  14.3030502  13.0295431  32.5084537  19.9706551  15.2370513
  32.4974413  20.8531267  14.8664446  31.6401916  19.6178102  15.0425050
  25.7384560  23.0237873  11.1690645  24.8040839  23.1439335  10.9995349
  25.9161228  22.1210340  10.9050655  21.2389748  16.4083569  13.3223906
  20.8687536  15.8554609  14.0104812  21.7348841  15.8041702  12.7698906
  29.1257111  18.8655192  11.7040679  29.5917564  19.6983184  11.6300982
  29.5764612  18.4000174  12.4085937  27.1933342  25.2099014   8.7026831
  27.4693186  25.0955608   9.6120705  26.3237841  24.8116498   8.6639004
  27.0973774  11.2335779  15.7431580  26.1836854  11.4640006  15.9113787
  27.5266876  11.3174223  16.5945613  26.8680233  19.4225671  18.2431474
  26.2151683  19.6701579  17.5883927  27.2460612  18.6089809  17.9093952
  23.8287406  29.4585364  12.3459645  24.0109801  28.6407020  12.8087397
  24.6520392  29.6753057  11.9084535  24.1629572  28.3853550   9.6074693
  24.6917338  27.8746004   8.9944855  24.4257792  28.0696080  10.4720226
  14.6646665  26.4017419  17.3510027  15.2500102  25.6561107  17.4837931
  14.4671503  26.7121376  18.2346691  17.5185320  29.4368666  12.3672469
  16.8495695  29.9214794  11.8836509  17.3798190  29.6837887  13.2815848
   9.2564319  18.9723019  16.0714470   9.2948419  18.4386610  16.8651588
   8.7504612  18.4458225  15.4525447  21.6590589  31.4712410  18.9655127
  22.2108897  31.6344031  19.7304213  21.9996782  32.0616848  18.2935152
  16.6355082  13.8187560  19.5677012  16.6996408  14.6802390  19.1554410
  16.5722202  13.2061561  18.8349371  16.1107354  15.8910692  23.2150046
  16.7379393  15.5087769  23.8287571  15.2535273  15.6724894  23.5805739
  12.8872897  17.6987121   9.1468401  13.1826338  16.7897800   9.0935455
  11.9860933  17.6774861   8.8249404  24.7958976  29.4194385  15.9518810
  24.6710115  28.6184125  15.4429755  25.4538067  29.9140579  15.4632780
  16.4167144  15.7743118  15.1295950  15.6953730  16.3879085  14.9903423
  17.2060400  16.3100883  15.0512596  26.8593884  27.2203405  17.5798360
  25.9124220  27.1008757  17.5076686  27.2076657  26.3325903  17.6624621
  19.2193458  13.1097544  21.4036602  19.7427859  13.3559841  22.1662911
  19.0005791  13.9417579  20.9839739  14.6160739  15.3801219   9.2707726
  14.2873445  14.4998598   9.0882832  14.9700109  15.3248888  10.1584116
  23.8640317  27.0156122  13.7802712  23.7165280  26.0872829  13.9610282
  24.6893811  27.0376212  13.2959787  17.7302562  15.6674189   9.6383204
  18.0698634  16.1960110   8.9161812  18.1774682  16.0054595  10.4141771
  27.4674439  27.8384680  14.8667585  28.3920987  27.6327542  14.7292036
  27.2989743  27.5901081  15.7756926  20.4246003  14.0511239  19.0886272
  20.0842823  13.2519052  19.4906952  19.7185009  14.3512950  18.5163105
  21.0762474  11.1360552  17.5413595  21.8988544  10.6621030  17.4192485
  21.3200538  11.9151036  18.0412281  19.7170709  14.1648810   7.8376497
  20.4379071  14.5430063   7.3340214  19.0936013  14.8837687   7.9411475
  23.8601832  14.8693959   8.7734829  24.0765446  15.7518597   8.4723657
  23.3795899  14.4780173   8.0440471  18.6001053  17.8279672  15.3505574
  18.4545634  18.1419976  16.2429855  18.1226257  18.4464573  14.7976472
  20.4597436  14.8182220  15.3986463  20.4459005  13.9223314  15.0618761
  21.1769864  14.8252884  16.0324749  22.3123567  15.2519561  17.4439591
  22.0541345  16.1736631  17.4423921  21.7808607  14.8549995  18.1340055
  27.2569756  28.3570348  10.2229676  27.4306633  27.7916770   9.4703529
  27.7498647  29.1571243  10.0409166  13.0746715  20.3685017  18.2893235
  12.5300183  21.1444825  18.4213509  13.9526065  20.7155821  18.1312356
  19.8634332  13.6996601  10.6674033  19.9850243  12.7713247  10.8664921
  19.5736374  13.7135287   9.7552349  22.7325522  11.3851511  13.8040753
  22.7547219  11.4490844  12.8492733  23.1493581  10.5456020  13.9981259
  33.1109147  21.1206771  11.8419976  33.5540293  20.3714096  11.4439099
  32.2335657  21.1116907  11.4593708  28.2444928  27.6737112   7.3226574
  28.9395833  28.2943805   7.5413889  28.5868078  26.8232463   7.5978952
  13.8612737  19.4954913  21.1823392  13.1194473  19.6437548  21.7688022
  13.5405481  19.7563179  20.3190141  30.1436351  25.1236818   8.8513905
  30.6687675  25.4624090   8.1263225  30.0558704  24.1883833   8.6677040
  21.8277012  31.1908801  13.2109158  21.3882002  30.6985180  13.9042015
  22.5785129  30.6481769  12.9701234  14.3069351  27.3820342  13.2133786
  15.1327371  27.0824114  12.8332430  13.9563403  26.6127964  13.6623575
  19.2750884  26.7346810  15.2831460  18.6530893  26.0717515  14.9833688
  19.9455751  26.7607942  14.6005108  12.5077956  25.3006668  14.1722720
  11.6709864  24.8728843  13.9906721  12.4801601  25.4939112  15.1093511
  19.3475412  15.2128598  24.8763966  19.3963567  16.0890721  24.4941736
  19.8897926  14.6705991  24.3035609  18.8364391  25.2850733   8.7589921
  18.9852511  25.9686198   8.1056593  19.6430834  25.2655823   9.2739376
  27.2431895  18.5893116  22.7857138  28.1441757  18.4499581  22.4941136
  27.3179869  18.7547571  23.7255316  32.6542011  22.5912009  14.2342423
  33.4888903  23.0301813  14.3979984  32.7901140  22.1150662  13.4150669
  29.7033517  20.1491744  20.1819911  30.1787639  20.3419390  19.3738763
  28.7799083  20.2050930  19.9363295  16.5917024  21.3115911   9.7650989
  16.3463066  20.4078241   9.9631200  16.7612938  21.3133061   8.8230467
  24.2813734  12.1839587  19.1475745  24.7995678  12.9200614  18.8222234
  23.9268867  12.4903581  19.9822504  15.8612671  17.0444269   7.2637151
  15.1681916  17.1188624   6.6077187  15.6164423  16.2804612   7.7858668
  24.5326328   8.6039870  14.6676642  24.8128082   7.9363059  15.2937068
  25.3176935   8.7968966  14.1551306  22.3359796  27.7798864   6.2301668
  21.7633764  28.3989051   5.7772140  22.9092590  28.3298226   6.7641590
  28.4035186  17.0257504  18.4148217  29.3552609  17.1255602  18.4360441
  28.2338637  16.2335772  18.9246301  26.4249566  14.1113087  18.6007618
  25.8299498  14.3918100  17.9054106  26.1399262  14.6006988  19.3724359
  25.5557056  28.0636014   7.3610250  26.4887729  27.9981576   7.5643126
  25.4680269  28.8992281   6.9024783  28.1845073  27.3801884   4.3214198
  28.1058704  27.0461748   5.2149956  29.0054740  27.8723652   4.3205670
  30.8823264  20.2463624  17.5290516  30.8499584  19.3079624  17.7150200
  31.4923888  20.3247660  16.7956341  22.7206595  19.1159677   3.5717720
  23.6665700  18.9865885   3.6406139  22.3420840  18.3774339   4.0487149
  31.0317753  17.0374667  17.5748800  30.5156801  16.2533124  17.3878728
  31.9157701  16.7093384  17.7395319  28.6928479  10.7815683  13.5344612
  28.4953301  10.4730771  14.4187944  29.3028185  11.5077322  13.6642542
  36.6999814  21.3079630  16.6696553  37.4303202  21.0464919  17.2304257
  36.0906759  20.5708352  16.7098621  34.7815111  19.4487493  17.2671004
  34.0548275  19.3143458  16.6587496  34.3662398  19.7564322  18.0727722
  11.8227452  18.3616016  13.9571652  11.5030237  17.5081325  13.6646026
  11.2760881  18.5764595  14.7129619  15.6007360  21.0778457  17.6741159
  15.8193370  22.0095565  17.6929192  16.0133134  20.7186432  18.4595962
  22.5211578  11.5846543   9.6616847  21.7112306  11.2393628  10.0372093
  23.2095995  11.2754086  10.2504459  24.4502126  10.6624590  11.2841144
  25.0033165  11.0820043  11.9431167  24.6872212   9.7360338  11.3264100
  20.4735225  16.6511663  27.0643908  20.3731952  17.6006020  26.9955999
  20.2556767  16.3229902  26.1919978  11.6915712  21.9818928  15.9264774
  10.9979184  21.5672881  15.4134728  12.4388703  22.0239464  15.3298193
  27.8280933  12.7725115  10.7919808  27.2479602  13.4309919  10.4097860
  27.5616866  11.9502459  10.3807225  26.2784500  12.1730172  12.9941128
  26.7784278  12.2846707  12.1855447  26.9220107  11.8691225  13.6341937
  13.6052455  21.9137182  13.8030789  13.5823143  22.0124869  12.8512672
  13.9153092  22.7602332  14.1247955  16.2639833  23.9713337  17.9177403
  17.2183086  23.9397279  17.8507335  16.0652356  23.5103960  18.7327629
  16.8539215  22.5414453  20.4848201  17.6732104  23.0358531  20.5083038
  17.1276023  21.6246421  20.4565768  26.6105811  14.9325205   9.8476156
  25.7231666  15.2174856   9.6296351  27.0259800  14.7718968   9.0003433
  29.9620347  14.9571726  13.5630495  30.7380737  15.4468178  13.8355112
  29.2368482  15.3829780  14.0202365  32.3992906  15.6699345  14.6204436
  32.9937397  15.4295081  13.9097744  32.4719490  14.9506476  15.2477972
  25.7549025  24.6969880   3.9424176  26.4584875  24.9019882   4.5581832
  25.0311673  25.2646642   4.2073260  26.5846835  20.4479741  10.0626446
  26.5282036  20.9048292   9.2234079  27.1375177  19.6870426   9.8849289
  30.3951641  16.2369473  10.8876566  30.1388575  15.8366109  11.7184774
  29.7704509  16.9513267  10.7626705  34.7063979  18.9765546  13.3947857
  34.1463537  19.0458735  14.1679419  34.1007482  18.8006531  12.6747353
  17.7759188  30.4102273  15.1466044  17.6591572  31.3547706  15.0444734
  16.9551634  30.1075835  15.5351843  27.6635722  25.1352409   5.9922636
  28.4981326  24.7033607   5.8100111  27.5020065  24.9634423   6.9199531
  27.3181614  21.6384522   7.3578976  27.2630418  21.4728794   6.4167420
  26.6927670  22.3460555   7.5141165  12.1074129  16.8752587  21.1840398
  12.7532993  16.3651541  21.6727623  11.8991280  17.6121268  21.7583823
  18.8013702  31.0630535  18.3621972  19.7040948  31.0954145  18.6788467
  18.5751072  30.1330986  18.3768308  20.5567304  29.8161522  15.0232051
  19.6062935  29.8163383  14.9096423  20.8599790  29.0694256  14.5068085
  24.4429859   7.7335408  11.1910231  23.6762255   7.1793895  11.3366913
  24.8540564   7.8057277  12.0524382  16.4471620  14.0220204  25.2815412
  17.3103082  13.6657009  25.4918737  15.8737031  13.6834099  25.9690816
  36.2919997  35.6522060  16.0877813  36.9298407  35.5328807  15.3841153
  36.1740840  36.6002904  16.1465765  33.1009703  35.6049488  16.0239338
  32.7628215  35.4890553  15.1359873  33.9699472  35.2040653  16.0040344
  28.9596519  37.4584965  12.0136229  28.3961384  37.3674901  11.2452516
  28.8448914  36.6384869  12.4938721  33.5829486  36.7584340  21.9825543
  33.5718127  36.3637138  21.1106047  33.7450126  36.0250412  22.5759315
  26.5060951  38.9536156  14.8520449  27.2982243  38.6126981  14.4366748
  26.7457601  39.0631131  15.7722602  34.5396078  41.1255932   7.3250694
  33.8884058  41.7110013   6.9384707  35.3340441  41.6562127   7.3845731
  28.4651705  38.2145069   7.7237828  29.2382581  37.6674056   7.5850704
  28.8177104  39.0789319   7.9352289  30.3036748  39.5421452  20.9304727
  30.0126614  40.4467083  20.8151393  30.9393732  39.5837979  21.6448797
  30.8017983  34.3737736   5.3556278  31.0543504  33.8519257   4.5939741
  29.8642542  34.2103881   5.4582961  35.8461266  33.3773514  13.1631021
  36.6324355  32.9592937  12.8121438  36.1099970  34.2819606  13.3312669
  36.0171343  38.8146364   7.8619678  35.3817176  38.8880991   8.5740582
  35.6868749  39.4039963   7.1838757  41.2469693  33.3148747  14.0664000
  41.9794865  32.7447964  14.3001829  40.4909049  32.9270348  14.5070505
  30.5214272  36.2765841   7.5580653  30.4050530  35.6010745   8.2261737
  30.6316531  35.7898215   6.7412806  32.8645813  35.7375989  11.2627342
  32.5004020  35.2106610  11.9740263  33.7212928  35.3474458  11.0893827
  32.5051300  30.7665888   6.2588690  32.6725702  31.6346125   6.6259162
  32.3148469  30.9293170   5.3349980  35.2626633  39.2282867  17.9254521
  34.9627356  40.1307906  17.8170328  34.9177692  38.9615050  18.7775674
  28.7139114  35.6796664  13.9591225  27.7889611  35.5472878  14.1668917
  28.9623527  36.4590883  14.4561168  38.6623776  31.7465407  15.6051958
  37.7540654  31.6780816  15.3110719  38.6111372  32.2237352  16.4333784
  32.4840520  33.2223546   7.2435357  32.3640146  33.6680597   8.0820838
  31.7893109  33.5708863   6.6848895  26.0747925  35.3229938  14.7935014
  26.2040306  35.5764417  15.7074426  25.3945377  35.9157646  14.4739669
  30.2447412  45.9927188  10.8925489  30.1671442  46.9435013  10.9713969
  29.6409056  45.6473060  11.5500415  40.5285423  29.9481846  17.3829832
  39.8859803  30.2414379  16.7369627  40.0240351  29.8334766  18.1883029
  38.1825587  33.6945019   8.0715691  39.0943443  33.9272406   7.8963389
  37.6735234  34.2782063   7.5090770  36.4666354  38.1169647  21.7076984
  36.8749710  37.6752057  20.9631616  35.7443616  37.5422274  21.9611177
  36.7895169  38.6770837  15.4629273  36.1604031  38.8416552  14.7605341
  36.4020831  39.0912447  16.2340237  40.6684401  39.6125275  12.8173637
  39.9835439  39.9924177  12.2670670  40.7528250  40.2220602  13.5505584
  37.9235332  37.2585234  19.4168980  38.1352228  37.9016994  18.7403361
  37.8765081  36.4247551  18.9490910  32.3423131  38.4145246  12.7279358
  32.8061476  38.6932948  11.9383980  32.0779929  37.5128690  12.5452449
  29.2347212  37.9616727  15.6659121  29.8048569  38.3903995  15.0276606
  29.8255324  37.6799312  16.3643307  31.2792017  34.5368398   9.5368923
  31.9816060  34.9889442  10.0042849  30.9472645  33.8952217  10.1648816
  25.0217351  32.7951951  14.8386057  24.2316405  33.0509479  14.3626167
  25.5128598  33.6100288  14.9438097  39.0381160  40.1357190  17.5891337
  39.8598604  39.7337377  17.3074019  39.0343563  40.0325424  18.5407453
  26.9732096  33.1596530  11.7969533  26.1763259  33.2715224  12.3153029
  26.7457688  33.4983182  10.9310424  32.8037764  39.6841233  19.7452048
  32.8682196  40.1461640  20.5810220  32.0948688  39.0538598  19.8734358
  23.3055054  33.0482441  17.2701047  23.5563092  33.9329451  17.5358623
  23.8414602  32.8687043  16.4976139  47.1287153  36.4795938  13.9376309
  46.3750862  35.9103336  13.7820313  47.2634695  36.4458603  14.8846944
  32.5185781  41.3509340   9.6131028  32.3831456  42.1960876  10.0415876
  33.0595594  41.5528618   8.8496962  25.9715179  38.8684779  10.1858953
  26.4839699  39.6628029  10.3364518  26.6237892  38.1711069  10.1192555
  27.7810063  41.9850535  12.2681707  27.9576692  42.9068500  12.0802690
  28.5766897  41.6708954  12.6976086  27.0662420  34.0315167  22.1443870
  26.9515935  33.1300424  22.4450969  26.2106938  34.2778863  21.7928686
  34.1454258  41.9732907  23.7431370  33.7018112  41.1869286  23.4252275
  34.8071471  42.1612058  23.0775261  28.9041379  43.5028709  18.2692049
  29.4548804  43.3745772  17.4969043  28.0652855  43.8023598  17.9186942
  36.2435496  42.2535707  21.7712772  36.2253971  43.0744588  21.2793041
  37.1655416  42.1289782  21.9962913  32.7008550  39.7679836  22.6136280
  33.2336887  39.0068125  22.3835588  32.1722631  39.4753488  23.3560434
  23.9364096  37.1973433  10.9618524  24.7739318  37.6070441  10.7452232
  24.1142363  36.2572875  10.9318718  35.8328528  34.8648513   6.6502357
  35.3175151  35.6353118   6.8890744  35.5605836  34.1913650   7.2735418
  33.4175639  29.7098214  11.7087595  32.5617235  29.3205065  11.5293234
  33.8302590  29.7890175  10.8487381  31.1917671  27.3283287  15.1145337
  32.0570668  27.1326096  14.7551226  31.2595180  27.0993639  16.0414693
  40.8062802  37.6180868   8.5855530  40.0292245  37.2792028   8.1410692
  41.4854283  37.6233491   7.9110495  35.6214831  32.7375606   8.4762138
  35.3164966  33.0521755   9.3272281  36.5745273  32.8157025   8.5189471
  34.0661263  38.8965829  10.1255092  33.5382624  38.1618588   9.8128329
  33.5648765  39.6740505   9.8795060  39.0454109  37.0914849  15.2422138
  38.3877783  37.7814111  15.3302267  39.8494508  37.4811281  15.5856125
  28.7979990  29.5585495  12.4861704  29.3723742  29.3360677  11.7534896
  29.3850973  29.6274190  13.2390305  37.8559568  35.4459222  13.2926080
  38.3691449  36.0789214  13.7947790  38.5060791  34.8460418  12.9269440
  29.1249577  31.5889956   6.5057589  28.2886890  31.9264643   6.8266864
  28.9854347  31.4538936   5.5684726  31.1002658  26.4326744  11.2136773
  30.4467070  26.1175761  10.5893388  31.0583132  25.8102485  11.9396596
  32.2113863  36.7146039   3.1290065  31.3040925  36.4835293   3.3281214
  32.7084895  35.9183658   3.3164047  34.3340398  32.9208678  15.5384421
  33.4162960  33.1423625  15.3806109  34.7500542  32.9954988  14.6796128
  35.1175446  34.3200093  10.6687101  35.8647265  34.8321491  10.3594223
  35.3867036  33.9984146  11.5291494  33.3902096  36.8158634   7.6514055
  32.4813316  36.5317667   7.7486525  33.4197180  37.2357713   6.7917362
  38.6221364  40.4265224  11.4205223  38.1683691  39.5856133  11.4770413
  37.9915330  41.0626622  11.7580003  37.5654283  31.3557210  12.6505890
  36.8277040  30.8434596  12.9816133  37.8181057  30.9157591  11.8389167
  37.0654303  42.2641720  12.3555041  37.3577277  42.8246777  11.6367406
  37.5752924  42.5570281  13.1108200  37.6665911  24.1333462  13.2447659
  37.9724787  23.2730825  12.9573574  38.3918515  24.7251082  13.0446653
  23.9590267  34.5364148  11.6329257  23.7614667  33.9433509  10.9080324
  23.4036931  34.2316358  12.3505196  31.9386990  34.4287255  13.7523850
  31.9935600  33.4761091  13.6766327  31.1278192  34.5846694  14.2365149
  33.0878184  38.3567378   4.9902134  32.6497614  37.6403237   4.5307771
  33.8288625  38.5843493   4.4287225  29.8779350  33.0464314  11.5114229
  29.0647216  33.3458485  11.9179421  30.3738344  32.6520003  12.2288712
  32.0287928  43.0422071  13.4448494  31.9864107  43.2682918  12.5157026
  32.9450627  42.8085446  13.5934295  41.2051299  36.6324575  11.0478452
  41.0669198  36.8226171  10.1199641  40.8487518  37.3943958  11.5046503
  41.2320679  38.7001102  16.0589724  41.6657185  38.6076391  16.9072778
  41.9452259  38.6758602  15.4209740  30.1453729  39.9185100  13.2410457
  30.9394327  39.4235420  13.0393032  29.4345421  39.3902963  12.8778162
  34.9648573  42.3003196  17.5922824  35.0185596  42.8694132  18.3600540
  34.0963355  42.4705081  17.2276862  26.4536492  34.0628182   9.3170209
  25.5234081  34.0012638   9.5340172  26.5493964  33.5404135   8.5206851
  26.3722041  30.5882995  11.9048451  26.6328859  31.5028328  11.7957612
  27.1939214  30.1207437  12.0545064  42.0936228  38.7424802  18.5922609
  42.2872118  39.6470613  18.8381884  41.9936846  38.2832221  19.4261194
  37.1551337  38.8931545  24.1663490  37.0036843  38.6642097  23.2493573
  37.1456016  39.8502147  24.1794835  32.7225005  40.4914122  16.9208294
  32.5836091  40.1232907  17.7934232  31.9339601  41.0061762  16.7492252
  33.3173157  45.5923219   8.2633830  33.4924913  45.1211262   9.0779453
  32.6305945  46.2188985   8.4915091  34.2730220  39.8695725  14.3097132
  33.9380053  39.8296495  15.2054782  33.7734166  39.2040441  13.8367542
  37.2089412  37.2151759   4.5834191  36.5918582  36.4898588   4.4867244
  36.7405900  37.9761120   4.2401266  38.8643543  41.9250668  22.2439972
  38.8056090  41.2409888  21.5770555  39.2663062  42.6669658  21.7920598
  27.8834242  48.7412582  15.0373691  28.1230840  49.3731106  15.7152709
  27.0403439  48.3900622  15.3239050  28.9987958  31.4337184   3.7055496
  28.1217424  31.3125984   3.3417742  29.4745711  30.6423262   3.4534384
  38.8660951  39.8890252  20.4753951  37.9787729  39.5516173  20.5980350
  39.4359502  39.1573283  20.7122717  20.5190098  36.2214343  13.7997003
  21.2061138  35.9076073  13.2118018  20.3638226  37.1255708  13.5264254
  25.3224820  31.1104540  18.2282026  25.2383009  30.5030209  17.4932436
  24.5007526  31.6013558  18.2291523  32.3962104  44.5491704  17.4415195
  32.3232276  45.3546675  17.9534499  31.9539497  44.7483670  16.6163216
  32.1851884  43.7863474  10.9518016  31.4019406  44.3285154  11.0456241
  32.8844629  44.3037454  11.3512257  35.4948534  29.5958103  13.5952221
  35.9917233  28.8428066  13.2753292  34.7235515  29.6322420  13.0295431
  43.3478291  35.2998469  15.2370513  43.3368167  36.1823184  14.8664446
  42.4795671  34.9470020  15.0425050  34.8560788  44.4478538  19.5973353
  35.5688760  45.0826003  19.5249255  34.3650816  44.5442404  18.7813355
  36.5778314  38.3529791  11.1690645  35.6434593  38.4731253  10.9995349
  36.7554983  37.4502257  10.9050655  32.0783503  31.7375486  13.3223906
  31.7081290  31.1846527  14.0104812  32.5742595  31.1333620  12.7698906
  39.9650866  34.1947110  11.7040679  40.4311318  35.0275102  11.6300982
  40.4158366  33.7292092  12.4085937  29.9072701  42.1972981  20.4178924
  30.6082161  42.8309464  20.5708318  29.4367816  42.5387713  19.6574563
  38.0327097  40.5390931   8.7026831  38.3086941  40.4247526   9.6120705
  37.1631596  40.1408416   8.6639004  37.9367529  26.5627697  15.7431580
  37.0230608  26.7931924  15.9113787  38.3660630  26.6466141  16.5945613
  37.7073987  34.7517589  18.2431474  37.0545437  34.9993496  17.5883927
  38.0854367  33.9381727  17.9093952  34.6681161  44.7877282  12.3459645
  34.8503555  43.9698938  12.8087397  35.4914147  45.0044974  11.9084535
  35.0023326  43.7145467   9.6074693  35.5311093  43.2037922   8.9944855
  35.2651546  43.3987997  10.4720226  25.5040419  41.7309337  17.3510027
  26.0893856  40.9853024  17.4837931  25.3065258  42.0413293  18.2346691
  28.3579074  44.7660584  12.3672469  27.6889450  45.2506712  11.8836509
  28.2191944  45.0129804  13.2815848  20.0958074  34.3014937  16.0714470
  20.1342173  33.7678527  16.8651588  19.5898367  33.7750142  15.4525447
  32.4984343  46.8004327  18.9655127  33.0502651  46.9635949  19.7304213
  32.8390536  47.3908765  18.2935152  37.3495217  41.6265585  24.8203782
  37.8935121  42.2395543  24.3258737  36.7682062  42.1845163  25.3370795
  23.7266652  33.0279039   9.1468401  24.0220093  32.1189717   9.0935455
  22.8254687  33.0066778   8.8249404  35.6352730  44.7486303  15.9518810
  35.5103870  43.9476043  15.4429755  36.2931821  45.2432496  15.4632780
  27.2560899  31.1035035  15.1295950  26.5347484  31.7171003  14.9903423
  28.0454154  31.6392800  15.0512596  37.6987639  42.5495323  17.5798360
  36.7517974  42.4300674  17.5076686  38.0470412  41.6617821  17.6624621
  25.4554493  30.7093137   9.2707726  25.1267199  29.8290515   9.0882832
  25.8093864  30.6540805  10.1584116  34.7034072  42.3448039  13.7802712
  34.5559034  41.4164747  13.9610282  35.5287565  42.3668130  13.2959787
  28.5696316  30.9966106   9.6383204  28.9092389  31.5252028   8.9161812
  29.0168437  31.3346512  10.4141771  38.3068194  43.1676598  14.8667585
  39.2314741  42.9619459  14.7292036  38.1383497  42.9192999  15.7756926
  30.5564463  29.4940728   7.8376497  31.2772826  29.8721981   7.3340214
  29.9329768  30.2129605   7.9411475  34.6995586  30.1985877   8.7734829
  34.9159201  31.0810515   8.4723657  34.2189653  29.8072090   8.0440471
  38.0963510  43.6862265  10.2229676  38.2700388  43.1208688   9.4703529
  38.5892401  44.4863160  10.0409166  23.9140470  35.6976935  18.2893235
  23.3693938  36.4736742  18.4213509  24.7919820  36.0447739  18.1312356
  30.7028086  29.0288518  10.6674033  30.8243998  28.1005165  10.8664921
  30.4130129  29.0427204   9.7552349  33.5719277  26.7143429  13.8040753
  33.5940974  26.7782762  12.8492733  33.9887336  25.8747937  13.9981259
  43.9502901  36.4498688  11.8419976  44.3934047  35.7006014  11.4439099
  43.0729411  36.4408825  11.4593708  24.7006492  34.8246831  21.1823392
  23.9588228  34.9729466  21.7688022  24.3799236  35.0855096  20.3190141
  40.9830106  40.4528735   8.8513905  41.5081430  40.7916008   8.1263225
  40.8952458  39.5175751   8.6677040  32.6450154  44.3662809  20.9803782
  32.9537281  44.1211956  21.8526481  33.4425636  44.5709447  20.4922652
  32.6670766  46.5200719  13.2109158  32.2275757  46.0277097  13.9042015
  33.4178883  45.9773686  12.9701234  25.1463105  42.7112260  13.2133786
  25.9721125  42.4116031  12.8332430  24.7957157  41.9419882  13.6623575
  30.1144639  42.0638728  15.2831460  29.4924648  41.4009433  14.9833688
  30.7849505  42.0899860  14.6005108  23.3471710  40.6298586  14.1722720
  22.5103619  40.2020760  13.9906721  23.3195356  40.8231029  15.1093511
  40.6724012  41.0861639  24.1565103  39.8819555  41.0685778  23.6169603
  40.4357366  41.6249933  24.9114140  40.7921887  37.9354105  21.4697832
  40.8419892  37.7704113  22.4113354  40.6835810  37.0681364  21.0795712
  29.6758145  40.6142651   8.7589921  29.8246266  41.2978115   8.1056593
  30.4824589  40.5947741   9.2739376  38.0825649  33.9185033  22.7857138
  38.9835512  33.7791498  22.4941136  38.1573624  34.0839488  23.7255316
  42.2940084  40.3551047  21.7139853  42.0024892  40.7181027  22.5503314
  41.6812215  39.6418055  21.5353185  43.4935766  37.9203927  14.2342423
  44.3282657  38.3593731  14.3979984  43.6294895  37.4442580  13.4150669
  40.5427272  35.4783662  20.1819911  41.0181393  35.6711308  19.3738763
  39.6192837  35.5342847  19.9363295  27.4310778  36.6407829   9.7650989
  27.1856820  35.7370159   9.9631200  27.6006693  36.6424979   8.8230467
  26.7006426  32.3736186   7.2637151  26.0075671  32.4480541   6.6077187
  26.4558178  31.6096530   7.7858668  35.3720082  23.9331788  14.6676642
  35.6521836  23.2654977  15.2937068  36.1570689  24.1260883  14.1551306
  33.1753551  43.1090782   6.2301668  32.6027518  43.7280969   5.7772140
  33.7486345  43.6590143   6.7641590  39.2428941  32.3549422  18.4148217
  40.1946364  32.4547519  18.4360441  39.0732391  31.5627690  18.9246301
  41.7217019  35.5755541  17.5290516  41.6893339  34.6371542  17.7150200
  42.3317642  35.6539578  16.7956341  33.5600349  34.4451594   3.5717720
  34.5059454  34.3157802   3.6406139  33.1814594  33.7066256   4.0487149
  41.8711507  32.3666585  17.5748800  41.3550556  31.5825041  17.3878728
  42.7551456  32.0385301  17.7395319  39.5322234  26.1107600  13.5344612
  39.3347055  25.8022688  14.4187944  40.1421940  26.8369239  13.6642542
  47.5393568  36.6371548  16.6696553  48.2696957  36.3756836  17.2304257
  46.9300514  35.9000270  16.7098621  45.6208866  34.7779411  17.2671004
  44.8942029  34.6435376  16.6587496  45.2056152  35.0856239  18.0727722
  33.4439042  38.4969340  25.0318377  34.3642051  38.6747939  25.2258424
  33.4088625  37.5525386  24.8798077  31.7443267  32.3701571   3.5072606
  30.8374722  32.0734683   3.5835319  32.0219248  32.0731389   2.6406892
  22.6621207  33.6907934  13.9571652  22.3423991  32.8373242  13.6646026
  22.1154635  33.9056512  14.7129619  26.4401115  36.4070375  17.6741159
  26.6587124  37.3387483  17.6929192  26.8526888  36.0478349  18.4595962
  33.3605332  26.9138460   9.6616847  32.5506061  26.5685545  10.0372093
  34.0489749  26.6046004  10.2504459  35.2895881  25.9916507  11.2841144
  35.8426919  26.4111961  11.9431167  35.5265967  25.0652255  11.3264100
  30.5142051  29.2288506   3.6484585  31.3761215  29.5543404   3.9080402
  30.6992395  28.4420002   3.1357651  22.5309467  37.3110846  15.9264774
  21.8372938  36.8964798  15.4134728  23.2782458  37.3531382  15.3298193
  38.6674688  28.1017032  10.7919808  38.0873357  28.7601836  10.4097860
  38.4010620  27.2794377  10.3807225  37.1178254  27.5022090  12.9941128
  37.6178032  27.6138625  12.1855447  37.7613862  27.1983143  13.6341937
  24.4446210  37.2429099  13.8030789  24.4216898  37.3416787  12.8512672
  24.7546846  38.0894250  14.1247955  27.1033587  39.3005254  17.9177403
  28.0576841  39.2689197  17.8507335  26.9046111  38.8395878  18.7327629
  27.6932970  37.8706370  20.4848201  28.5125859  38.3650449  20.5083038
  27.9669777  36.9538339  20.4565768  37.4499566  30.2617123   9.8476156
  36.5625421  30.5466773   9.6296351  37.8653555  30.1010886   9.0003433
  40.8014102  30.2863644  13.5630495  41.5774492  30.7760096  13.8355112
  40.0762236  30.7121698  14.0202365  43.2386660  30.9991263  14.6204436
  43.8331151  30.7586999  13.9097744  43.3113244  30.2798394  15.2477972
  25.4583816  44.8424874  14.9347601  25.3238284  44.0825275  14.3685599
  25.0415878  45.5665774  14.4676390  37.4240589  35.7771659  10.0626446
  37.3675791  36.2340210   9.2234079  37.9768932  35.0162343   9.8849289
  41.2345395  31.5661391  10.8876566  40.9782330  31.1658026  11.7184774
  40.6098263  32.2805184  10.7626705  45.5457733  34.3057464  13.3947857
  44.9857291  34.3750653  14.1679419  44.9401237  34.1298448  12.6747353
  28.6152942  45.7394191  15.1466044  28.4985326  46.6839623  15.0444734
  27.7945388  45.4367752  15.5351843  38.5029477  40.4644327   5.9922636
  39.3375081  40.0325525   5.8100111  38.3413820  40.2926340   6.9199531
  38.1575369  36.9676440   7.3578976  38.1024173  36.8020711   6.4167420
  37.5321424  37.6752473   7.5141165  22.9467884  32.2044504  21.1840398
  23.5926747  31.6943458  21.6727623  22.7385035  32.9413186  21.7583823
  35.4721276  39.2725352  26.6832538  36.3412436  39.4466004  26.3219173
  34.9928027  40.0919769  26.5608268  31.4671494  26.4684549   6.9364294
  31.4550164  27.4126389   7.0932565  32.3594916  26.2854694   6.6423755
  29.6407456  46.3922453  18.3621972  30.5434703  46.4246063  18.6788467
  29.4144826  45.4622904  18.3768308  31.3961058  45.1453439  15.0232051
  30.4456689  45.1455301  14.9096423  31.6993544  44.3986174  14.5068085
  35.2823614  23.0627326  11.1910231  34.5156009  22.5085812  11.3366913
  35.6934319  23.1349194  12.0524382  43.9403458  50.9341406  16.0239338
  43.6021969  50.8182471  15.1359873  44.8093226  50.5332571  16.0040344
  44.4223241  52.0876258  21.9825543  44.4111882  51.6929056  21.1106047
  44.5843880  51.3542330  22.5759315  37.3454706  54.2828074  14.8520449
  38.1375998  53.9418898  14.4366748  37.5851356  54.3923049  15.7722602
  41.1430502  54.8713369  20.9304727  40.8520368  55.7759000  20.8151393
  41.7787486  54.9129897  21.6448797  42.0686709  52.2490218  17.5206087
  42.6650281  52.0246240  16.8063050  42.1261680  51.5074963  18.1231535
  49.6088868  42.3562239  18.5258608  49.2772192  43.2257650  18.3019823
  49.0134481  42.0398523  19.2052639  39.5532869  51.0088582  13.9591225
  38.6283365  50.8764796  14.1668917  39.8017282  51.7882801  14.4561168
  49.5017531  47.0757325  15.6051958  48.5934408  47.0072733  15.3110719
  49.4505127  47.5529270  16.4333784  36.9141680  50.6521855  14.7935014
  37.0434061  50.9056334  15.7074426  36.2339131  51.2449563  14.4739669
  43.5758397  48.4946971  23.5486855  42.7991731  49.0540891  23.5389720
  44.2148960  48.9803754  24.0701726  51.3679177  45.2773763  17.3829832
  50.7253558  45.5706297  16.7369627  50.8634106  45.1626684  18.1883029
  41.8304769  51.3032424  23.1104822  42.5719453  51.8417468  22.8339646
  41.1241755  51.9298713  23.2676374  43.6591179  48.3834171  19.0810541
  44.5052374  48.8073585  19.2245190  43.5989816  47.7267796  19.7749104
  46.8090624  46.0438540  20.7391715  46.5651556  46.7980600  20.2025990
  47.0850555  46.4223887  21.5738962  46.3655316  45.1994973  16.3205552
  45.5039795  45.4976226  16.6122290  46.3917750  45.4165372  15.3886585
  40.0740966  53.2908645  15.6659121  40.6442323  53.7195913  15.0276606
  40.6649078  53.0091229  16.3643307  40.5666133  48.4572072  23.9120132
  39.9364793  49.1388353  24.1455529  40.4602221  48.3455154  22.9673271
  35.8611105  48.1243868  14.8386057  35.0710159  48.3801397  14.3626167
  36.3522353  48.9392206  14.9438097  37.8125851  48.4888447  11.7969533
  37.0157014  48.6007142  12.3153029  37.5851443  48.8275100  10.9310424
  43.6431518  55.0133151  19.7452048  43.7075951  55.4753558  20.5810220
  42.9342442  54.3830516  19.8734358  34.1448808  48.3774359  17.2701047
  34.3956847  49.2621369  17.5358623  34.6808357  48.1978960  16.4976139
  39.8446876  42.7592838  26.2745383  39.4513821  42.2059037  26.9493028
  40.6613016  43.0703416  26.6651901  42.7614837  44.1750717  23.8665640
  43.5024550  44.7757870  23.7870103  42.9932759  43.4328355  23.3083683
  37.9056175  49.3607084  22.1443870  37.7909690  48.4592342  22.4450969
  37.0500692  49.6070781  21.7928686  43.5402305  55.0971754  22.6136280
  44.0730641  54.3360042  22.3835588  43.0116386  54.8045406  23.3560434
  46.7071999  40.2031820  18.1429922  46.3636269  41.0933462  18.0669032
  47.0750962  40.0133478  17.2799507  44.2569393  45.0390132  11.7087595
  43.4010990  44.6496982  11.5293234  44.6696345  45.1182093  10.8487381
  45.7868540  42.5736475  16.1079155  45.2833335  42.5366610  15.2946960
  46.0799147  43.4829218  16.1675812  42.0311426  42.6575205  15.1145337
  42.8964423  42.4618014  14.7551226  42.0988935  42.4285557  16.0414693
  39.6373745  44.8877413  12.4861704  40.2117497  44.6652594  11.7534896
  40.2244727  44.9566107  13.2390305  41.9396413  41.7618662  11.2136773
  41.2860825  41.4467679  10.5893388  41.8976887  41.1394402  11.9396596
  45.1734153  48.2500595  15.5384421  44.2556714  48.4715542  15.3806109
  45.5894297  48.3246906  14.6796128  48.5059665  39.4625379  13.2447659
  48.8118542  38.6022743  12.9573574  49.2312270  40.0542999  13.0446653
  34.7984021  49.8656066  11.6329257  34.6008421  49.2725427  10.9080324
  34.2430685  49.5608276  12.3505196  42.7780745  49.7579172  13.7523850
  42.8329355  48.8053009  13.6766327  41.9671947  49.9138611  14.2365149
  40.7173105  48.3756232  11.5114229  39.9040970  48.6750403  11.9179421
  41.2132099  47.9811921  12.2288712  46.3147316  48.8398057  20.3429123
  46.6696704  49.0669530  21.2023589  46.9619448  49.1716433  19.7206379
  40.2087180  45.9474588  17.1275464  40.8486559  45.8063347  16.4298428
  39.3764710  45.6609101  16.7514066  37.2115796  45.9174913  11.9048451
  37.4722613  46.8320246  11.7957612  38.0332968  45.4499355  12.0545064
  38.6840721  47.3312670  19.0747276  39.3563775  47.1230032  18.4259925
  37.8570508  47.1334756  18.6352508  44.5866293  43.9574611  21.0912937
  43.9394208  44.6564560  20.9977413  45.3567309  44.3910755  21.4589185
  44.7630428  51.7955376  19.1509756  45.6922488  51.9466535  18.9778724
  44.3421458  51.8839396  18.2958403  43.5618759  55.8206040  16.9208294
  43.4229845  55.4524824  17.7934232  42.7733356  56.3353679  16.7492252
  39.0868219  50.6055273  19.8349713  38.9488016  49.8735512  20.4361252
  39.9973142  50.5164173  19.5533901  41.7150519  50.3175232  19.3233392
  42.4250138  49.6768424  19.2820011  41.6719827  50.5688127  20.2459573
  40.4279453  47.3040450  21.1429032  39.8916810  46.8531188  21.7950628
  39.8396162  47.4386359  20.3999496  31.3583852  51.5506261  13.7997003
  32.0454892  51.2367991  13.2118018  31.2031981  52.4547626  13.5264254
  36.1618574  46.4396458  18.2282026  36.0776763  45.8322127  17.4932436
  35.3401281  46.9305476  18.2291523  46.3342288  44.9250021  13.5952221
  46.8310988  44.1719983  13.2753292  45.5629270  44.9614338  13.0295431
  42.9177257  47.0667404  13.3223906  42.5475045  46.5138445  14.0104812
  43.4136350  46.4625538  12.7698906  48.7761283  41.8919615  15.7431580
  47.8624363  42.1223841  15.9113787  49.2054385  41.9758059  16.5945613
  48.5467742  50.0809507  18.2431474  47.8939192  50.3285414  17.5883927
  48.9248121  49.2673645  17.9093952  44.5955315  50.8229318  24.7297511
  43.9195952  50.7223447  25.3999887  45.4182948  50.6668531  25.1933509
  36.3434174  57.0601254  17.3510027  36.9287610  56.3144942  17.4837931
  36.1459012  57.3705211  18.2346691  30.9351828  49.6306854  16.0714470
  30.9735928  49.0970445  16.8651588  30.4292121  49.1042060  15.4525447
  38.3142591  44.4771395  19.5677012  38.3783917  45.3386226  19.1554410
  38.2509711  43.8645397  18.8349371  37.7894863  46.5494527  23.2150046
  38.4166902  46.1671605  23.8287571  36.9322782  46.3308729  23.5805739
  34.5660406  48.3570957   9.1468401  34.8613847  47.4481635   9.0935455
  33.6648442  48.3358696   8.8249404  38.0954653  46.4326953  15.1295950
  37.3741239  47.0462921  14.9903423  38.8847909  46.9684718  15.0512596
  40.8980967  43.7681380  21.4036602  41.4215368  44.0143676  22.1662911
  40.6793300  44.6001414  20.9839739  36.2948248  46.0385054   9.2707726
  35.9660954  45.1582433   9.0882832  36.6487618  45.9832723  10.1584116
  42.1033512  44.7095075  19.0886272  41.7630332  43.9102888  19.4906952
  41.3972518  45.0096786  18.5163105  42.7549983  41.7944387  17.5413595
  43.5776053  41.3204865  17.4192485  42.9988047  42.5734871  18.0412281
  40.2788562  48.4863508  15.3505574  40.1333143  48.8003811  16.2429855
  39.8013766  49.1048408  14.7976472  42.1384945  45.4766056  15.3986463
  42.1246514  44.5807149  15.0618761  42.8557373  45.4836720  16.0324749
  43.9911076  45.9103396  17.4439591  43.7328854  46.8320467  17.4423921
  43.4596116  45.5133831  18.1340055  34.7534224  51.0268852  18.2893235
  34.2087692  51.8028660  18.4213509  35.6313574  51.3739657  18.1312356
  41.5421841  44.3580436  10.6674033  41.6637752  43.4297082  10.8664921
  41.2523883  44.3719122   9.7552349  44.4113031  42.0435347  13.8040753
  44.4334728  42.1074680  12.8492733  44.8281090  41.2039855  13.9981259
  35.5400246  50.1538748  21.1823392  34.7981982  50.3021384  21.7688022
  35.2192990  50.4147014  20.3190141  34.1865465  55.9590504  14.1722720
  33.3497373  55.5312678  13.9906721  34.1589110  56.1522947  15.1093511
  41.0262920  45.8712433  24.8763966  41.0751076  46.7474556  24.4941736
  41.5685435  45.3289826  24.3035609  48.9219404  49.2476951  22.7857138
  49.8229266  49.1083416  22.4941136  48.9967378  49.4131406  23.7255316
  43.2562209  46.6243806  21.6310325  42.3865518  46.9177372  21.3592913
  43.4921689  47.2084251  22.3517588  45.9601243  42.8423423  19.1475745
  46.4783187  43.5784450  18.8222234  45.6056376  43.1487416  19.9822504
  46.2113837  39.2623705  14.6676642  46.4915591  38.5946894  15.2937068
  46.9964444  39.4552801  14.1551306  50.0822695  47.6841339  18.4148217
  51.0340118  47.7839437  18.4360441  49.9126146  46.8919608  18.9246301
  48.1037075  44.7696923  18.6007618  47.5087007  45.0501935  17.9054106
  47.8186771  45.2590823  19.3724359  52.7105262  47.6958502  17.5748800
  52.1944310  46.9116959  17.3878728  53.5945210  47.3677219  17.7395319
  50.3715988  41.4399518  13.5344612  50.1740810  41.1314606  14.4187944
  50.9815694  42.1661157  13.6642542  44.2832796  53.8261258  25.0318377
  45.2035806  54.0039857  25.2258424  44.2482380  52.8817303  24.8798077
  33.5014961  49.0199852  13.9571652  33.1817746  48.1665160  13.6646026
  32.9548390  49.2348430  14.7129619  37.2794869  51.7362293  17.6741159
  37.4980879  52.6679401  17.6929192  37.6920643  51.3770267  18.4595962
  44.1999087  42.2430378   9.6616847  43.3899815  41.8977463  10.0372093
  44.8883504  41.9337922  10.2504459  46.1289635  41.3208425  11.2841144
  46.6820674  41.7403878  11.9431167  46.3659721  40.3944173  11.3264100
  42.1522734  47.3095499  27.0643908  42.0519461  48.2589855  26.9955999
  41.9344276  46.9813737  26.1919978  33.3703221  52.6402763  15.9264774
  32.6766693  52.2256716  15.4134728  34.1176212  52.6823300  15.3298193
  47.9572009  42.8314008  12.9941128  48.4571787  42.9430542  12.1855447
  48.6007616  42.5275061  13.6341937  42.0154004  50.7392637  25.8808969
  41.5321086  51.5392997  26.0872858  42.1014943  50.7500582  24.9276413
  35.2839964  52.5721017  13.8030789  35.2610652  52.6708704  12.8512672
  35.5940600  53.4186168  14.1247955  37.9427342  54.6297172  17.9177403
  38.8970595  54.5981114  17.8507335  37.7439865  54.1687796  18.7327629
  38.5326724  53.1998288  20.4848201  39.3519613  53.6942367  20.5083038
  38.8063532  52.2830256  20.4565768  33.7861638  47.5336422  21.1840398
  34.4320502  47.0235376  21.6727623  33.5778789  48.2705104  21.7583823
  46.1217368  38.3919243  11.1910231  45.3549764  37.8377730  11.3366913
  46.5328073  38.4641112  12.0524382  38.1259129  44.6804039  25.2815412
  38.9890591  44.3240844  25.4918737  37.5524540  44.3417934  25.9690816
  26.5101464   3.3035790  11.5449088  27.0541368   3.9165748  11.0504043
  25.9288309   3.8615368  12.0616102  29.8330258   2.7631844  10.8810410
  29.0425802   2.7455983  10.3414909  29.5963613   3.3020138  11.6359446
  24.6327523   0.9495557  13.4077845  25.5018682   1.1236209  13.0464480
  24.1534274   1.7689974  13.2853574  36.2919998  12.6584183   2.8123120
  36.9298408  12.5390930   2.1086460  36.1740841  13.6065027   2.8711072
  33.1009705  12.6111611   2.7484644  32.7628216  12.4952675   1.8605179
  33.9699473  12.2102776   2.7285650  33.5829488  13.7646462   8.7070850
  33.5718128  13.3699261   7.8351353  33.7450127  13.0312535   9.3004621
  30.3036749  16.5483574   7.6550034  30.0126615  17.4529205   7.5396700
  30.9393733  16.5900102   8.3694103  31.2292956  13.9260423   4.2451393
  31.8256528  13.7016445   3.5308356  31.2867927  13.1845168   4.8476841
  35.2626634  16.2344990   4.6499827  34.9627357  17.1370029   4.5415635
  34.9177693  15.9677173   5.5020980  30.2447414  22.9989310  -2.3829205
  30.1671443  23.9497135  -2.3040724  29.6409057  22.6535183  -1.7254279
  32.7364644  10.1717176  10.2732162  31.9597978  10.7311096  10.2635027
  33.3755207  10.6573959  10.7947032  30.9911016  12.9802629   9.8350129
  31.7325700  13.5187673   9.5584953  30.2848001  13.6068918   9.9921681
  36.4666355  15.1231769   8.4322291  36.8749711  14.6814180   7.6876923
  35.7443617  14.5484397   8.6856483  32.8197426  10.0604376   5.8055848
  33.6658621  10.4843790   5.9490497  32.7596063   9.4038000   6.4994411
  36.7895170  15.6832960   2.1874579  36.1604033  15.8478674   1.4850647
  36.4020832  16.0974570   2.9585543  35.9696871   7.7208745   7.4637021
  35.7257803   8.4750805   6.9271297  36.2456801   8.0994092   8.2984268
  37.9235334  14.2647357   6.1414287  38.1352229  14.9079117   5.4648668
  37.8765082  13.4309673   5.6736217  29.2347213  14.9678850   2.3904428
  29.8048570  15.3966118   1.7521912  29.8255325  14.6861434   3.0888613
  29.7272380  10.1342277  10.6365439  29.0971040  10.8158558  10.8700836
  29.6208467  10.0225359   9.6918577  39.0381162  17.1419312   4.3136644
  39.8598605  16.7399500   4.0319326  39.0343564  17.0387546   5.2652760
  32.8037765  16.6903356   6.4697355  32.8682198  17.1523763   7.3055526
  32.0948689  16.0600721   6.5979664  29.0053122   4.4363043  12.9990690
  28.6120068   3.8829241  13.6738334  29.8219263   4.7473621  13.3897208
  31.9221083   5.8520922  10.5910947  32.6630797   6.4528075  10.5115409
  32.1539006   5.1098560  10.0328989  27.0662421  11.0377289   8.8689176
  26.9515936  10.1362547   9.1696275  26.2106939  11.2840986   8.5173993
  34.1454259  18.9795030  10.4676677  33.7018113  18.1931408  10.1497581
  34.8071473  19.1674180   9.8020568  28.9041380  20.5090831   4.9937355
  29.4548805  20.3807895   4.2214349  28.0652856  20.8085720   4.6432248
  36.2435497  19.2597830   8.4958078  36.2253972  20.0806711   8.0038347
  37.1655417  19.1351905   8.7208219  32.7008551  16.7741959   9.3381587
  33.2336888  16.0130247   9.1080895  32.1722632  16.4815611  10.0805741
  39.0454110  14.0976972   1.9667445  38.3877784  14.7876233   2.0547574
  39.8494509  14.4873404   2.3101431  38.6221365  17.4327346  -1.8549471
  38.1683692  16.5918256  -1.7984280  37.9915332  18.0688744  -1.5174691
  37.0654304  19.2703843  -0.9199653  37.3577279  19.8308900  -1.6387287
  37.5752925  19.5632404  -0.1646493  32.0287929  20.0484194   0.1693801
  31.9864108  20.2745040  -0.7597667  32.9450628  19.8147568   0.3179602
  35.4753563  10.5168261   7.0674430  35.8302951  10.7439735   7.9268896
  36.1225694  10.8486638   6.4451685  41.2320680  15.7063224   2.7835030
  41.6657186  15.6138513   3.6318084  41.9452260  15.6820725   2.1455046
  34.9648575  19.3065318   4.3168131  35.0185597  19.8756255   5.0845847
  34.0963356  19.4767203   3.9522168  42.0936229  15.7486925   5.3167916
  42.2872119  16.6532735   5.5627191  41.9936847  15.2894344   6.1506501
  33.7472540   5.6344816   7.8158243  33.1000455   6.3334765   7.7222720
  34.5173555   6.0680959   8.1834491  37.1551338  15.8993668  10.8908796
  37.0036844  15.6704219   9.9738880  37.1456017  16.8564269  10.9040141
  33.9236674  13.4725580   5.8755063  34.8528734  13.6236740   5.7024030
  33.5027704  13.5609601   5.0203709  32.7225006  17.4976245   3.6453600
  32.5836092  17.1295029   4.5179539  31.9339602  18.0123884   3.4737558
  34.2730221  16.8757848   1.0342438  33.9380054  16.8358618   1.9300088
  33.7734167  16.2102564   0.5612848  28.2474465  12.2825478   6.5595019
  28.1094263  11.5505716   7.1606558  29.1579389  12.1934378   6.2779207
  30.8756766  11.9945437   6.0478699  31.5856385  11.3538629   6.0065317
  30.8326074  12.2458332   6.9704880  38.8643545  18.9312790   8.9685278
  38.8056091  18.2472010   8.3015861  39.2663063  19.6731780   8.5165904
  29.5885700   8.9810655   7.8674339  29.0523057   8.5301393   8.5195935
  29.0002408   9.1156564   7.1244803  27.8834243  25.7474704   1.7618997
  28.1230842  26.3793228   2.4398016  27.0403440  25.3962744   2.0484356
  38.8660952  16.8952374   7.1999258  37.9787731  16.5578296   7.3225657
  39.4359503  16.1635405   7.4368023  32.3962105  21.5553827   4.1660501
  32.3232277  22.3608798   4.6779806  31.9539498  21.7545792   3.3408523
  32.1851885  20.7925597  -2.3236677  31.4019407  21.3347277  -2.2298453
  32.8844630  21.3099576  -1.9242436  29.9072702  19.2035104   7.1424231
  30.6082162  19.8371587   7.2953625  29.4367817  19.5449836   6.3819870
  37.7073988  11.7579712   4.9676781  37.0545439  12.0055619   4.3129234
  38.0854368  10.9443850   4.6339258  34.6681162  21.7939405  -0.9295049
  34.8503557  20.9761061  -0.4667296  35.4914148  22.0107097  -1.3670159
  35.0023328  20.7207590  -3.6680000  35.5311094  20.2100044  -4.2809838
  35.2651547  20.4050120  -2.8034467  33.7561561  12.4999523  11.4542818
  33.0802198  12.3993652  12.1245193  34.5789195  12.3438736  11.9178815
  25.5040420  18.7371459   4.0755333  26.0893857  17.9915147   4.2083238
  25.3065259  19.0475416   4.9591997  28.3579076  21.7722707  -0.9082224
  27.6889451  22.2568834  -1.3918184  28.2191945  22.0191927   0.0061154
  32.4984344  23.8066450   5.6900434  33.0502652  23.9698072   6.4549519
  32.8390538  24.3970888   5.0180459  26.9501110   8.2264732   9.9395353
  27.5773149   7.8441810  10.5532877  26.0929029   8.0078934  10.3051046
  37.3495219  18.6327708  11.5449088  37.8935123  19.2457666  11.0504043
  36.7682063  19.1907286  12.0616102  35.6352732  21.7548426   2.6764116
  35.5103871  20.9538165   2.1675062  36.2931823  22.2494619   2.1878086
  37.6987640  19.5557446   4.3043666  36.7517975  19.4362797   4.2321993
  38.0470413  18.6679944   4.3869928  30.0587213   5.4451585   8.1281908
  30.5821615   5.6913881   8.8908218  29.8399547   6.2771619   7.7085046
  34.7034073  19.3510162   0.5048019  34.5559036  18.4226869   0.6855589
  35.5287567  19.3730253   0.0205094  38.3068195  20.1738721   1.5912891
  39.2314743  19.9681582   1.4537342  38.1383498  19.9255122   2.5002233
  33.1517322   7.5873601   4.1684897  32.8935100   8.5090672   4.1669228
  32.6202363   7.1904035   4.8585362  38.0963511  20.6924388  -3.0525017
  38.2700389  20.1270811  -3.8051165  38.5892402  21.4925283  -3.2345527
  23.9140471  12.7039057   5.0138542  23.3693939  13.4798865   5.1458816
  24.7919821  13.0509862   4.8557663  24.7006493  11.8308953   7.9068698
  23.9588229  11.9791589   8.4933329  24.3799237  12.0917219   7.0435448
  32.6450156  21.3724932   7.7049088  32.9537282  21.1274078   8.5771788
  33.4425638  21.5771570   7.2167959  32.6670768  23.5262841  -0.0645535
  32.2275758  23.0339220   0.6287322  33.4178885  22.9835809  -0.3053460
  30.1144640  19.0700850   2.0076767  29.4924649  18.4071555   1.7078995
  30.7849507  19.0961982   1.3250414  30.1869167   7.5482638  11.6009273
  30.2357323   8.4244761  11.2187042  30.7291681   7.0060031  11.0280916
  40.6724013  18.0923762  10.8810410  39.8819557  18.0747900  10.3414909
  40.4357368  18.6312055  11.6359446  40.7921888  14.9416228   8.1943138
  40.8419893  14.7766235   9.1358661  40.6835811  14.0743487   7.8041019
  38.0825650  10.9247156   9.5102445  38.9835513  10.7853621   9.2186443
  38.1573625  11.0901611  10.4500622  32.4168456   8.3014011   8.3555631
  31.5471765   8.5947577   8.0838220  32.6527936   8.8854456   9.0762895
  42.2940085  17.3613169   8.4385160  42.0024893  17.7243150   9.2748621
  41.6812216  16.6480178   8.2598492  40.5427273  12.4845784   6.9065218
  41.0181395  12.6773430   6.0984069  39.6192838  12.5404970   6.6608601
  35.1207490   4.5193628   5.8721052  35.6389433   5.2554655   5.5467540
  34.7662622   4.8257621   6.7067811  39.2428942   9.3611544   5.1393523
  40.1946365   9.4609642   5.1605747  39.0732392   8.5689813   5.6491608
  37.2643322   6.4467127   5.3252924  36.6693254   6.7272140   4.6299413
  36.9793018   6.9361028   6.0969665  33.4439043  15.5031463  11.7563684
  34.3642053  15.6810062  11.9503731  33.4088626  14.5587508  11.6043383
  26.4401116  13.4132498   4.3986465  26.6587126  14.3449605   4.4174499
  26.8526890  13.0540472   5.1841269  31.3128981   8.9865703  13.7889214
  31.2125708   9.9360060  13.7201305  31.0950523   8.6583942  12.9165284
  31.1760251  12.4162842  12.6054276  30.6927333  13.2163202  12.8118165
  31.2621190  12.4270787  11.6521720  27.1033589  16.3067377   4.6422710
  28.0576842  16.2751319   4.5752641  26.9046112  15.8458001   5.4572936
  27.6932971  14.8768493   7.2093507  28.5125860  15.3712572   7.2328345
  27.9669778  13.9600461   7.1811075  25.4583817  21.8486996   1.6592907
  25.3238285  21.0887397   1.0930906  25.0415880  22.5727896   1.1921696
  28.6152943  22.7456313   1.8711350  28.4985327  23.6901746   1.7690040
  27.7945390  22.4429875   2.2597149  22.9467885   9.2106627   7.9085704
  23.5926749   8.7005581   8.3972930  22.7385036   9.9475309   8.4829130
  35.4721277  16.2787474  13.4077845  36.3412437  16.4528127  13.0464480
  34.9928029  17.0981891  13.2853574  29.6407457  23.3984575   5.0867279
  30.5434704  23.4308186   5.4033774  29.4144827  22.4685026   5.1013614
  31.3961059  22.1515562   1.7477357  30.4456690  22.1517424   1.6341729
  31.6993546  21.4048296   1.2313392  27.2865376   6.3574244  12.0060719
  28.1496838   6.0011049  12.2164043  26.7130787   6.0188139  12.6936123
  43.9403459  27.9403528   2.7484644  43.6021971  27.8244593   1.8605179
  44.8093227  27.5394694   2.7285650  44.4223242  29.0938380   8.7070850
  44.4111883  28.6991178   7.8351353  44.5843882  28.3604453   9.3004621
  37.3454707  31.2890196   1.5765756  38.1375999  30.9481021   1.1612055
  37.5851357  31.3985171   2.4967909  41.1430503  31.8775492   7.6550034
  40.8520369  32.7821123   7.5396700  41.7787488  31.9192020   8.3694103
  42.0686710  29.2552340   4.2451393  42.6650282  29.0308363   3.5308356
  42.1261682  28.5137086   4.8476841  46.1020388  31.5636907   4.6499827
  45.8021112  32.4661946   4.5415635  45.7571448  31.2969091   5.5020980
  39.5532870  28.0150704   0.6836532  38.6283366  27.8826918   0.8914224
  39.8017283  28.7944924   1.1806474  36.9141681  27.6583978   1.5180321
  37.0434062  27.9118457   2.4319733  36.2339132  28.2511686   1.1984976
  43.5758398  25.5009093  10.2732162  42.7991732  26.0603013  10.2635027
  44.2148961  25.9865876  10.7947032  41.8304770  28.3094547   9.8350129
  42.5719455  28.8479591   9.5584953  41.1241756  28.9360835   9.9921681
  47.3060110  30.4523687   8.4322291  47.7143466  30.0106098   7.6876923
  46.5837371  29.8776315   8.6856483  43.6591180  25.3896294   5.8055848
  44.5052375  25.8135707   5.9490497  43.5989818  24.7329918   6.4994411
  46.8090625  23.0500662   7.4637021  46.5651557  23.8042723   6.9271297
  47.0850556  23.4286010   8.2984268  48.7629088  29.5939275   6.1414287
  48.9745983  30.2371034   5.4648668  48.7158836  28.7601591   5.6736217
  46.3655317  22.2057095   3.0450859  45.5039796  22.5038349   3.3367596
  46.3917752  22.4227494   2.1131892  40.0740968  30.2970767   2.3904428
  40.6442325  30.7258036   1.7521912  40.6649079  30.0153352   3.0888613
  40.5666134  25.4634195  10.6365439  39.9364795  26.1450476  10.8700836
  40.4602222  25.3517276   9.6918577  35.8611106  25.1305991   1.5631363
  35.0710160  25.3863519   1.0871474  36.3522354  25.9454329   1.6683404
  37.8125852  25.4950570  -1.4785160  37.0157015  25.6069264  -0.9601664
  37.5851444  25.8337222  -2.3444270  43.6431519  32.0195273   6.4697355
  43.7075952  32.4815681   7.3055526  42.9342443  31.3892638   6.5979664
  34.1448809  25.3836481   3.9946354  34.3956848  26.2683491   4.2603930
  34.6808358  25.2041083   3.2221446  39.8446877  19.7654961  12.9990690
  39.4513822  19.2121159  13.6738334  40.6613017  20.0765539  13.3897208
  42.7614838  21.1812840  10.5910947  43.5024551  21.7819993  10.5115409
  42.9932761  20.4390477  10.0328989  37.9056176  26.3669207   8.8689176
  37.7909691  25.4654464   9.1696275  37.0500694  26.6132904   8.5173993
  44.9848014  34.3086947  10.4676677  44.5411868  33.5223326  10.1497581
  45.6465227  34.4966098   9.8020568  39.7435135  35.8382749   4.9937355
  40.2942560  35.7099812   4.2214349  38.9046611  36.1377638   4.6432248
  47.0829252  34.5889747   8.4958078  47.0647727  35.4098628   8.0038347
  48.0049172  34.4643822   8.7208219  43.5402306  32.1033877   9.3381587
  44.0730643  31.3422165   9.1080895  43.0116387  31.8107529  10.0805741
  42.0311427  19.6637328   1.8390643  42.8964424  19.4680136   1.4796533
  42.0988936  19.4347679   2.7660000  39.6373746  21.8939535  -0.7892990
  40.2117498  21.6714717  -1.5219797  40.2244729  21.9628230  -0.0364389
  45.1734154  25.2562718   2.2629727  44.2556716  25.4777665   2.1051415
  45.5894298  25.3309028   1.4041435  34.7984022  26.8718188  -1.6425436
  34.6008422  26.2787549  -2.3674369  34.2430686  26.5670399  -0.9249497
  42.7780746  26.7641295   0.4769157  42.8329356  25.8115131   0.4011634
  41.9671948  26.9200734   0.9610456  40.7173106  25.3818355  -1.7640464
  39.9040972  25.6812525  -1.3575272  41.2132100  24.9874043  -1.0465982
  46.3147318  25.8460179   7.0674430  46.6696705  26.0731652   7.9268896
  46.9619449  26.1778556   6.4451685  40.2087181  22.9536710   3.8520771
  40.8486560  22.8125469   3.1543734  39.3764711  22.6671224   3.4759373
  37.2115797  22.9237035  -1.3706242  37.4722615  23.8382368  -1.4797082
  38.0332970  22.4561478  -1.2209629  38.6840723  24.3374792   5.7992582
  39.3563776  24.1292154   5.1505231  37.8570509  24.1396878   5.3597815
  44.5866295  20.9636733   7.8158243  43.9394210  21.6626683   7.7222720
  45.3567310  21.3972877   8.1834491  47.9945093  31.2285585  10.8908796
  47.8430599  30.9996137   9.9738880  47.9849772  32.1856187  10.9040141
  44.7630429  28.8017498   5.8755063  45.6922489  28.9528658   5.7024030
  44.3421459  28.8901519   5.0203709  43.5618761  32.8268163   3.6453600
  43.4229846  32.4586947   4.5179539  42.7733357  33.3415802   3.4737558
  39.0868220  27.6117395   6.5595019  38.9488018  26.8797634   7.1606558
  39.9973143  27.5226295   6.2779207  41.7150520  27.3237355   6.0478699
  42.4250139  26.6830547   6.0065317  41.6719829  27.5750249   6.9704880
  49.7037299  34.2604708   8.9685278  49.6449845  33.5763928   8.3015861
  50.1056818  35.0023698   8.5165904  40.4279454  24.3102573   7.8674339
  39.8916811  23.8593311   8.5195935  39.8396163  24.4448481   7.1244803
  49.7054706  32.2244292   7.1999258  48.8181485  31.8870214   7.3225657
  50.2753257  31.4927323   7.4368023  31.3583854  28.5568384   0.5242309
  32.0454893  28.2430114  -0.0636675  31.2031982  29.4609748   0.2509561
  36.1618576  23.4458580   4.9527333  36.0776764  22.8384250   4.2177743
  35.3401282  23.9367599   4.9536829  42.9177258  24.0729527   0.0469213
  42.5475046  23.5200567   0.7350118  43.4136351  23.4687660  -0.5055787
  40.7466457  34.5327022   7.1424231  41.4475916  35.1663505   7.2953625
  40.2761572  34.8741753   6.3819870  48.5467743  27.0871629   4.9676781
  47.8939193  27.3347537   4.3129234  48.9248123  26.2735767   4.6339258
  44.5955316  27.8291440  11.4542818  43.9195953  27.7285570  12.1245193
  45.4182950  27.6730654  11.9178815  36.3434175  34.0663377   4.0755333
  36.9287612  33.3207065   4.2083238  36.1459013  34.3767334   4.9591997
  30.9351830  26.6368977   2.7959776  30.9735929  26.1032568   3.5896895
  30.4292122  26.1104183   2.1770754  38.3142592  21.4833518   6.2922319
  38.3783918  22.3448348   5.8799716  38.2509712  20.8707519   5.5594677
  37.7894864  23.5556650   9.9395353  38.4166903  23.1733727  10.5532877
  36.9322783  23.3370852  10.3051046  48.1888973  33.9619625  11.5449088
  48.7328877  34.5749583  11.0504043  47.6075818  34.5199204  12.0616102
  34.5660407  25.3633079  -4.1286292  34.8613848  24.4543758  -4.1819238
  33.6648443  25.3420819  -4.4505290  38.0954654  23.4389076   1.8541256
  37.3741240  24.0525043   1.7148730  38.8847910  23.9746841   1.7757902
  40.8980968  20.7743502   8.1281908  41.4215370  21.0205799   8.8908218
  40.6793301  21.6063537   7.7085046  36.2948249  23.0447177  -4.0046967
  35.9660955  22.1644556  -4.1871861  36.6487620  22.9894846  -3.1170578
  42.1033513  21.7157197   5.8131579  41.7630333  20.9165010   6.2152259
  41.3972519  22.0158908   5.2408412  42.7549985  18.8006510   4.2658902
  43.5776054  18.3266988   4.1437792  42.9988048  19.5796994   4.7657588
  40.2788563  25.4925630   2.0750880  40.1333144  25.8065933   2.9675162
  39.8013767  26.1110531   1.5221779  42.1384946  22.4828178   2.1231770
  42.1246515  21.5869272   1.7864068  42.8557374  22.4898842   2.7570056
  43.9911077  22.9165519   4.1684897  43.7328855  23.8382589   4.1669228
  43.4596117  22.5195953   4.8585362  34.7534226  28.0330975   5.0138542
  34.2087694  28.8090783   5.1458816  35.6313575  28.3801779   4.8557663
  35.5400247  27.1600871   7.9068698  34.7981983  27.3083506   8.4933329
  35.2192992  27.4209137   7.0435448  43.4843910  36.7016849   7.7049088
  43.7931037  36.4565996   8.5771788  44.2819392  36.9063488   7.2167959
  34.1865466  32.9652626   0.8968027  33.3497374  32.5374801   0.7152028
  34.1589112  33.1585070   1.8338818  41.0262922  22.8774556  11.6009273
  41.0751077  23.7536679  11.2187042  41.5685436  22.3351949  11.0280916
  51.5117767  33.4215679  10.8810410  50.7213311  33.4039818  10.3414909
  51.2751122  33.9603973  11.6359446  51.6315642  30.2708146   8.1943138
  51.6813647  30.1058153   9.1358661  51.5229566  29.4035405   7.8041019
  48.9219405  26.2539074   9.5102445  49.8229268  26.1145539   9.2186443
  48.9967379  26.4193529  10.4500622  43.2562210  23.6305928   8.3555631
  42.3865520  23.9239494   8.0838220  43.4921691  24.2146373   9.0762895
  53.1333839  32.6905087   8.4385160  52.8418648  33.0535068   9.2748621
  52.5205971  31.9772095   8.2598492  51.3821028  27.8137702   6.9065218
  51.8575149  28.0065348   6.0984069  50.4586593  27.8696888   6.6608601
  45.9601244  19.8485545   5.8721052  46.4783188  20.5846572   5.5467540
  45.6056377  20.1549539   6.7067811  50.0822697  24.6903462   5.1393523
  51.0340119  24.7901560   5.1605747  49.9126147  23.8981730   5.6491608
  48.1037076  21.7759045   5.3252924  47.5087008  22.0564058   4.6299413
  47.8186773  22.2652946   6.0969665  44.2832798  30.8323381  11.7563684
  45.2035807  31.0101980  11.9503731  44.2482381  29.8879426  11.6043383
  33.5014963  26.0261974   0.6816959  33.1817747  25.1727283   0.3891333
  32.9548391  26.2410552   1.4374926  37.2794870  28.7424415   4.3986465
  37.4980880  29.6741523   4.4174499  37.6920644  28.3832390   5.1841269
  42.1522736  24.3157621  13.7889214  42.0519462  25.2651978  13.7201305
  41.9344278  23.9875860  12.9165284  33.3703223  29.6464886   2.6510080
  32.6766694  29.2318839   2.1380035  34.1176214  29.6885422   2.0543499
  42.0154006  27.7454760  12.6054276  41.5321087  28.5455120  12.8118165
  42.1014945  27.7562705  11.6521720  35.2839965  29.5783140   0.5276095
  35.2610653  29.6770827  -0.4242022  35.5940602  30.4248290   0.8493261
  37.9427343  31.6359295   4.6422710  38.8970597  31.6043237   4.5752641
  37.7439867  31.1749918   5.4572936  38.5326725  30.2060411   7.2093507
  39.3519614  30.7004489   7.2328345  38.8063533  29.2892379   7.1811075
  33.7861640  24.5398545   7.9085704  34.4320503  24.0297499   8.3972930
  33.5778791  25.2767226   8.4829130  46.3115032  31.6079392  13.4077845
  47.1806191  31.7820044  13.0464480  45.8321783  32.4273809  13.2853574
  38.1259130  21.6866162  12.0060719  38.9890592  21.3302966  12.2164043
  37.5524541  21.3480056  12.6936123  50.6840631  35.0946878  12.9990690
  50.2907577  34.5413077  13.6738334  51.5006772  35.4057457  13.3897208
  53.6008592  36.5104757  10.5910947  54.3418306  37.1111911  10.5115409
  53.8326515  35.7682395  10.0328989  48.6288619  38.8848568   9.9395353
  49.2560658  38.5025645  10.5532877  47.7716538  38.6662770  10.3051046
  51.8656676  38.2066474  11.6009273  51.9144832  39.0828597  11.2187042
  52.4079190  37.6643867  11.0280916  52.9916490  39.6449539  13.7889214
  52.8913217  40.5943896  13.7201305  52.7738032  39.3167778  12.9165284
  44.6255394  39.8690462   7.9085704  45.2714258  39.3589416   8.3972930
  44.4172545  40.6059144   8.4829130  48.9652885  37.0158079  12.0060719
  49.8284347  36.6594884  12.2164043  48.3918296  36.6771974  12.6936123
   3.7712134  44.1441898  27.2130999   3.0175843  43.5749296  27.0575004
   3.9059675  44.1104562  28.1601634   4.1818549  44.3017508  29.9451244
   4.9121938  44.0402796  30.5058947   3.5725495  43.5646230  29.9853311
   2.2633846  42.4425370  30.5425695   1.5367010  42.3081335  29.9342186
   1.8481133  42.7502199  31.3482413   2.1882714  41.9703424  26.6702548
   1.6282272  42.0396613  27.4434110   1.5826217  41.7944408  25.9502044
   5.1484646  47.1271339  26.5202350   5.4543523  46.2668702  26.2328265
   5.8737251  47.7188959  26.3201344   2.8538818  46.9269665  27.9431332
   3.1340571  46.2592854  28.5691758   3.6389425  47.1198761  27.4305996
   7.0140969  49.1045478  26.8099303   6.8165790  48.7960566  27.6942635
   7.6240675  49.8307117  26.9397232   2.7642349  46.0565203  24.4664921
   1.9974745  45.5023690  24.6121603   3.1753054  46.1287072  25.3279073
   3.7712135  21.1504021  13.9376306   3.0175844  20.5811419  13.7820310
   3.9059677  21.1166685  14.8846941   4.1818550  21.3079630  16.6696550
   4.9121939  21.0464919  17.2304253   3.5725496  20.5708352  16.7098618
   2.2633848  19.4487493  17.2671001   1.5367011  19.3143458  16.6587493
   1.8481134  19.7564322  18.0727719   2.1882715  18.9765546  13.3947854
   1.6282273  19.0458735  14.1679416   1.5826219  18.8006531  12.6747350
   3.7738734  35.6522060  16.0877810   4.4117144  35.5328807  15.3841150
   3.6559577  36.6002904  16.1465762   1.0648223  36.7584340  21.9825540
   1.0536864  36.3637138  21.1106044   1.2268862  36.0250412  22.5759312
   3.3280002  33.3773514  13.1631018   4.1143091  32.9592937  12.8121435
   3.5918707  34.2819606  13.3312666   8.7288429  33.3148747  14.0663996
   9.4613601  32.7447964  14.3001826   7.9727785  32.9270348  14.5070502
   6.2513850  27.0270321  18.5258605   5.9197174  27.8965732  18.3019820
   5.6559463  26.7106605  19.2052635   2.7445369  39.2282867  17.9254518
   2.4446092  40.1307906  17.8170325   2.3996429  38.9615050  18.7775671
   6.1442513  31.7465407  15.6051955   5.2359390  31.6780816  15.3110716
   6.0930109  32.2237352  16.4333781   8.0104159  29.9481846  17.3829829
   7.3678540  30.2414379  16.7369624   7.5059088  29.8334766  18.1883026
   5.6644323  33.6945019   8.0715688   6.5762179  33.9272406   7.8963386
   5.1553970  34.2782063   7.5090767   3.9485091  38.1169647  21.7076981
   4.3568447  37.6752057  20.9631613   3.2262352  37.5422274  21.9611174
   4.2713905  38.6770837  15.4629270   3.6422768  38.8416552  14.7605338
   3.8839567  39.0912447  16.2340234   8.1503137  39.6125275  12.8173633
   7.4654175  39.9924177  12.2670667   8.2346987  40.2220602  13.5505581
   3.4515606  30.7146622  20.7391711   3.2076538  31.4688682  20.2025987
   3.7275537  31.0931970  21.5738958   5.4054069  37.2585234  19.4168977
   5.6170964  37.9016994  18.7403358   5.3583817  36.4247551  18.9490907
   3.0080298  29.8703055  16.3205549   2.1464777  30.1684309  16.6122287
   3.0342732  30.0873454  15.3886582   6.5199897  40.1357190  17.5891334
   7.3417341  39.7337377  17.3074016   6.5162300  40.0325424  18.5407450
  14.6105890  36.4795938  13.9376306  13.8569598  35.9103336  13.7820310
  14.7453431  36.4458603  14.8846941   1.6272994  41.9732907  23.7431367
   1.1836848  41.1869286  23.4252272   2.2890208  42.1612058  23.0775258
   3.7254232  42.2535707  21.7712769   3.7072708  43.0744588  21.2793038
   4.6474152  42.1289782  21.9962910   3.3496982  24.8739902  18.1429919
   3.0061251  25.7641544  18.0669029   3.7175944  24.6841560  17.2799504
   2.4293522  27.2444558  16.1079152   1.9258317  27.2074693  15.2946957
   2.7224129  28.1537300  16.1675809   8.2881538  37.6180868   8.5855527
   7.5110981  37.2792028   8.1410689   8.9673019  37.6233491   7.9110492
   3.1033567  32.7375606   8.4762135   2.7983703  33.0521755   9.3272278
   4.0564010  32.8157025   8.5189468   6.5272845  37.0914849  15.2422135
   5.8696520  37.7814111  15.3302264   7.3313244  37.4811281  15.5856122
   5.3378304  35.4459222  13.2926077   5.8510186  36.0789214  13.7947787
   5.9879528  34.8460418  12.9269437   1.8159135  32.9208678  15.5384417
   0.8981696  33.1423625  15.3806106   2.2319279  32.9954988  14.6796125
   2.5994183  34.3200093  10.6687098   3.3466002  34.8321491  10.3594220
   2.8685772  33.9984146  11.5291491   6.1040100  40.4265224  11.4205220
   5.6502427  39.5856133  11.4770410   5.4734067  41.0626622  11.7580000
   5.0473020  31.3557210  12.6505887   4.3095777  30.8434596  12.9816130
   5.2999793  30.9157591  11.8389164   4.5473040  42.2641720  12.3555038
   4.8396014  42.8246777  11.6367403   5.0571660  42.5570281  13.1108197
   5.1484647  24.1333462  13.2447656   5.4543524  23.2730825  12.9573571
   5.8737252  24.7251082  13.0446650   2.9572299  33.5106139  20.3429120
   3.3121686  33.7377612  21.2023586   3.6044430  33.8424516  19.7206375
   8.6870035  36.6324575  11.0478449   8.5487934  36.8226171  10.1199638
   8.3306254  37.3943958  11.5046500   8.7139415  38.7001102  16.0589721
   9.1475922  38.6076391  16.9072775   9.4270996  38.6758602  15.4209737
   2.4467310  42.3003196  17.5922821   2.5004332  42.8694132  18.3600537
   1.5782091  42.4705081  17.2276858   9.5754965  38.7424802  18.5922606
   9.7690855  39.6470613  18.8381881   9.4755583  38.2832221  19.4261191
   1.2291275  28.6282693  21.0912933   0.5819190  29.3272643  20.9977410
   1.9992291  29.0618837  21.4589182   4.6370073  38.8931545  24.1663487
   4.4855580  38.6642097  23.2493570   4.6274753  39.8502147  24.1794832
   1.4055410  36.4663458  19.1509753   2.3347470  36.6174617  18.9778720
   0.9846440  36.5547479  18.2958400   1.7548957  39.8695725  14.3097129
   1.4198789  39.8296495  15.2054778   1.2552902  39.2040441  13.8367539
   6.3462280  41.9250668  22.2439969   6.2874826  41.2409888  21.5770552
   6.7481798  42.6669658  21.7920595   6.3479687  39.8890252  20.4753948
   5.4606466  39.5516173  20.5980347   6.9178238  39.1573283  20.7122714
   2.9767270  29.5958103  13.5952218   3.4735970  28.8428066  13.2753289
   2.2054252  29.6322420  13.0295428  10.8297028  35.2998469  15.2370510
  10.8186904  36.1823184  14.8664443   9.9614407  34.9470020  15.0425047
   2.3379524  44.4478538  19.5973350   3.0507496  45.0826003  19.5249252
   1.8469553  44.5442404  18.7813352   4.0597051  38.3529791  11.1690642
   3.1253330  38.4731253  10.9995346   4.2373719  37.4502257  10.9050652
   7.4469602  34.1947110  11.7040676   7.9130055  35.0275102  11.6300979
   7.8977103  33.7292092  12.4085934   5.4186265  26.5627697  15.7431577
   4.5049345  26.7931924  15.9113784   5.8479367  26.6466141  16.5945610
   5.1892724  34.7517589  18.2431471   4.5364174  34.9993496  17.5883924
   5.5673104  33.9381727  17.9093949   1.2380297  35.4937400  24.7297508
   0.5620934  35.3931529  25.3999884   2.0607931  35.3376614  25.1933506
   4.8313954  41.6265585  24.8203779   5.3753858  42.2395543  24.3258734
   4.2500799  42.1845163  25.3370792   3.1171467  44.7486303  15.9518807
   2.9922606  43.9476043  15.4429752   3.7750558  45.2432496  15.4632776
   5.1806375  42.5495323  17.5798357   4.2336711  42.4300674  17.5076683
   5.5289148  41.6617821  17.6624618   2.1852808  42.3448039  13.7802709
   2.0377771  41.4164747  13.9610279   3.0106302  42.3668130  13.2959784
   5.7886930  43.1676598  14.8667582   6.7133478  42.9619459  14.7292033
   5.6202234  42.9192999  15.7756923   2.1814323  30.1985877   8.7734826
   2.3977937  31.0810515   8.4723654   1.7008390  29.8072090   8.0440468
   1.0538013  26.7143429  13.8040750   1.0759710  26.7782762  12.8492730
   1.4706072  25.8747937  13.9981256  11.4321638  36.4498688  11.8419973
  11.8752784  35.7006014  11.4439096  10.5548148  36.4408825  11.4593705
   8.4648842  40.4528735   8.8513902   8.9900166  40.7916008   8.1263222
   8.3771195  39.5175751   8.6677037   8.1542748  41.0861639  24.1565100
   7.3638292  41.0685778  23.6169599   7.9176103  41.6249933  24.9114137
   8.2740623  37.9354105  21.4697829   8.3238628  37.7704113  22.4113351
   8.1654547  37.0681364  21.0795709   5.5644386  33.9185033  22.7857135
   6.4654248  33.7791498  22.4941133   5.6392360  34.0839488  23.7255313
   9.7758820  40.3551047  21.7139850   9.4843628  40.7181027  22.5503311
   9.1630951  39.6418055  21.5353182  10.9754502  37.9203927  14.2342420
  11.8101394  38.3593731  14.3979981  11.1113631  37.4442580  13.4150666
   8.0246008  35.4783662  20.1819908   8.5000130  35.6711308  19.3738759
   7.1011574  35.5342847  19.9363292   2.6026225  27.5131505  19.1475742
   3.1208169  28.2492532  18.8222231   2.2481358  27.8195498  19.9822501
   2.8538819  23.9331788  14.6676639   3.1340573  23.2654977  15.2937065
   3.6389426  24.1260883  14.1551302   6.7247677  32.3549422  18.4148214
   7.6765100  32.4547519  18.4360438   6.5551128  31.5627690  18.9246298
   4.7462057  29.4405005  18.6007615   4.1511989  29.7210018  17.9054103
   4.4611753  29.9298906  19.3724356   9.2035755  35.5755541  17.5290513
   9.1712075  34.6371542  17.7150197   9.8136379  35.6539578  16.7956338
   9.3530244  32.3666585  17.5748797   8.8369292  31.5825041  17.3878725
  10.2370192  32.0385301  17.7395316   7.0140971  26.1107600  13.5344609
   6.8165792  25.8022688  14.4187941   7.6240676  26.8369239  13.6642539
  15.0212305  36.6371548  16.6696550  15.7515693  36.3756836  17.2304253
  14.4119250  35.9000270  16.7098618  13.1027602  34.7779411  17.2671001
  12.3760766  34.6435376  16.6587493  12.6874889  35.0856239  18.0727719
   0.9257779  38.4969340  25.0318374   1.8460788  38.6747939  25.2258421
   0.8907362  37.5525386  24.8798074   2.7714617  25.9916507  11.2841141
   3.3245656  26.4111961  11.9431164   3.0084703  25.0652255  11.3264097
   6.1493424  28.1017032  10.7919805   5.5692093  28.7601836  10.4097857
   5.8829357  27.2794377  10.3807222   4.5996991  27.5022090  12.9941125
   5.0996769  27.6138625  12.1855444   5.2432599  27.1983143  13.6341934
   4.9318302  30.2617123   9.8476153   4.0444157  30.5466773   9.6296348
   5.3472291  30.1010886   9.0003430   8.2832838  30.2863644  13.5630492
   9.0593228  30.7760096  13.8355109   7.5580973  30.7121698  14.0202362
  10.7205397  30.9991263  14.6204433  11.3149888  30.7586999  13.9097741
  10.7931981  30.2798394  15.2477969   4.9059326  35.7771659  10.0626443
   4.8494527  36.2340210   9.2234076   5.4587668  35.0162343   9.8849286
   8.7164132  31.5661391  10.8876563   8.4601066  31.1658026  11.7184770
   8.0917000  32.2805184  10.7626702  13.0276470  34.3057464  13.3947854
  12.4676028  34.3750653  14.1679416  12.4219973  34.1298448  12.6747350
   5.6394105  36.9676440   7.3578972   5.5842909  36.8020711   6.4167417
   5.0140161  37.6752473   7.5141162   2.9540012  39.2725352  26.6832535
   3.8231172  39.4466004  26.3219170   2.4746764  40.0919769  26.5608265
   2.7642350  23.0627326  11.1910228   1.9974746  22.5085812  11.3366910
   3.1753055  23.1349194  12.0524379  14.6132488  50.9813978  16.0877810
  15.2510898  50.8620725  15.3841150  14.4953331  51.9294822  16.1465762
  11.4222194  50.9341406  16.0239335  11.0840706  50.8182471  15.1359869
  12.2911963  50.5332571  16.0040341  14.1673757  48.7065432  13.1631018
  14.9536846  48.2884855  12.8121435  14.4312461  49.6111524  13.3312666
  19.5682184  48.6440665  14.0663996  20.3007356  48.0739882  14.3001826
  18.8121540  48.2562265  14.5070502  11.1858304  51.0667906  11.2627339
  10.8216511  50.5398527  11.9740260  12.0425419  50.6766375  11.0893824
  17.0907604  42.3562239  18.5258605  16.7590929  43.2257650  18.3019820
  16.4953218  42.0398523  19.2052635  16.9836268  47.0757325  15.6051955
  16.0753145  47.0072733  15.3110716  16.9323863  47.5529270  16.4333781
  11.0577133  48.4946971  23.5486852  10.2810467  49.0540891  23.5389717
  11.6967696  48.9803754  24.0701722  18.8497914  45.2773763  17.3829829
  18.2072294  45.5706297  16.7369624  18.3452842  45.1626684  18.1883026
  16.5038078  49.0236937   8.0715688  17.4155934  49.2564323   7.8963386
  15.9947725  49.6073981   7.5090767  11.1409915  48.3834171  19.0810538
  11.9871110  48.8073585  19.2245187  11.0808553  47.7267796  19.7749101
  14.2909361  46.0438540  20.7391711  14.0470292  46.7980600  20.2025987
  14.5669291  46.4223887  21.5738958  16.2447823  52.5877152  19.4168977
  16.4564719  53.2308912  18.7403358  16.1977572  51.7539469  18.9490907
  13.8474052  45.1994973  16.3205549  12.9858531  45.4976226  16.6122287
  13.8736487  45.4165372  15.3886582   8.0484869  48.4572072  23.9120129
   7.4183530  49.1388353  24.1455526   7.9420957  48.3455154  22.9673268
  25.4499644  51.8087856  13.9376306  24.6963353  51.2395254  13.7820310
  25.5847186  51.7750520  14.8846941   7.3265612  42.7592838  26.2745380
   6.9332558  42.2059037  26.9493025   8.1431752  43.0703416  26.6651898
  10.2433573  44.1750717  23.8665637  10.9843286  44.7757870  23.7870099
  10.4751496  43.4328355  23.3083680  14.1890736  40.2031820  18.1429919
  13.8455005  41.0933462  18.0669029  14.5569699  40.0133478  17.2799504
  11.7388130  45.0390132  11.7087592  10.8829726  44.6496982  11.5293231
  12.1515082  45.1182093  10.8487378  13.2687276  42.5736475  16.1079152
  12.7652072  42.5366610  15.2946957  13.5617883  43.4829218  16.1675809
   9.5130162  42.6575205  15.1145334  10.3783159  42.4618014  14.7551223
   9.5807671  42.4285557  16.0414690  19.1275293  52.9472786   8.5855527
  18.3504736  52.6083945   8.1410689  19.8066774  52.9525409   7.9110492
  13.9427322  48.0667523   8.4762135  13.6377457  48.3813672   9.3272278
  14.8957764  48.1448943   8.5189468  17.3666600  52.4206767  15.2422135
  16.7090274  53.1106028  15.3302264  18.1706999  52.8103199  15.5856122
   7.1192481  44.8877413  12.4861700   7.6936233  44.6652594  11.7534893
   7.7063464  44.9566107  13.2390302  16.1772059  50.7751140  13.2926077
  16.6903940  51.4081132  13.7947787  16.8273282  50.1752335  12.9269437
   9.4215149  41.7618662  11.2136770   8.7679561  41.4467679  10.5893385
   9.3795623  41.1394402  11.9396593  12.6552889  48.2500595  15.5384417
  11.7375451  48.4715542  15.3806106  13.0713033  48.3246906  14.6796125
  13.4387937  49.6492011  10.6687098  14.1859756  50.1613408  10.3594220
  13.7079527  49.3276064  11.5291491  15.8866774  46.6849127  12.6505887
  15.1489531  46.1726513  12.9816130  16.1393548  46.2449509  11.8389164
  15.9878402  39.4625379  13.2447656  16.2937278  38.6022743  12.9573571
  16.7131006  40.0542999  13.0446650  10.2599481  49.7579172  13.7523847
  10.3148091  48.8053009  13.6766324   9.4490683  49.9138611  14.2365146
   8.1991841  48.3756232  11.5114226   7.3859707  48.6750403  11.9179418
   8.6950835  47.9811921  12.2288709  13.7966053  48.8398057  20.3429120
  14.1515441  49.0669530  21.2023586  14.4438184  49.1716433  19.7206375
  19.5263790  51.9616492  11.0478449  19.3881689  52.1518088  10.1199638
  19.1700009  52.7235875  11.5046500   7.6905916  45.9474588  17.1275461
   8.3305295  45.8063347  16.4298425   6.8583447  45.6609101  16.7514063
  19.5533170  54.0293019  16.0589721  19.9869676  53.9368309  16.9072775
  20.2664750  54.0050520  15.4209737   6.1659458  47.3312670  19.0747273
   6.8382511  47.1230032  18.4259921   5.3389244  47.1334756  18.6352505
  12.0685030  43.9574611  21.0912933  11.4212945  44.6564560  20.9977410
  12.8386045  44.3910755  21.4589182   9.1969256  50.3175232  19.3233389
   9.9068874  49.6768424  19.2820008   9.1538564  50.5688127  20.2459570
   7.9098190  47.3040450  21.1429029   7.3735547  46.8531188  21.7950625
   7.3214898  47.4386359  20.3999493   3.6437311  46.4396458  18.2282023
   3.5595500  45.8322127  17.4932433   2.8220017  46.9305476  18.2291520
  13.8161025  44.9250021  13.5952218  14.3129724  44.1719983  13.2753289
  13.0448006  44.9614338  13.0295428  21.6690782  50.6290387  15.2370510
  21.6580658  51.5115102  14.8664443  20.8008162  50.2761938  15.0425047
  10.3995994  47.0667404  13.3223903  10.0293781  46.5138445  14.0104809
  10.8955086  46.4625538  12.7698903  18.2863357  49.5239028  11.7040676
  18.7523809  50.3567019  11.6300979  18.7370857  49.0584009  12.4085934
  16.2580020  41.8919615  15.7431577  15.3443099  42.1223841  15.9113784
  16.6873121  41.9758059  16.5945610  16.0286478  50.0809507  18.2431471
  15.3757928  50.3285414  17.5883924  16.4066858  49.2673645  17.9093949
  12.0774051  50.8229318  24.7297508  11.4014688  50.7223447  25.3999884
  12.9001685  50.6668531  25.1933506   5.7961327  44.4771395  19.5677009
   5.8602654  45.3386226  19.1554407   5.7328447  43.8645397  18.8349368
   5.2713600  46.5494527  23.2150043   5.8985639  46.1671605  23.8287568
   4.4141519  46.3308729  23.5805736   5.5773390  46.4326953  15.1295947
   4.8559975  47.0462921  14.9903420   6.3666645  46.9684718  15.0512593
   8.3799703  43.7681380  21.4036599   8.9034105  44.0143676  22.1662908
   8.1612036  44.6001414  20.9839736   9.5852248  44.7095075  19.0886269
   9.2449068  43.9102888  19.4906949   8.8791254  45.0096786  18.5163102
  10.2368720  41.7944387  17.5413592  11.0594789  41.3204865  17.4192482
  10.4806783  42.5734871  18.0412278  13.0208077  45.5277795   8.7734826
  13.2371692  46.4102432   8.4723654  12.5402144  45.1364008   8.0440468
   7.7607299  48.4863508  15.3505571   7.6151879  48.8003811  16.2429852
   7.2832502  49.1048408  14.7976469   9.6203682  45.4766056  15.3986460
   9.6065250  44.5807149  15.0618758  10.3376110  45.4836720  16.0324746
  11.4729812  45.9103396  17.4439588  11.2147590  46.8320467  17.4423918
  10.9414853  45.5133831  18.1340052   9.0240577  44.3580436  10.6674030
   9.1456489  43.4297082  10.8664918   8.7342620  44.3719122   9.7552346
  11.8931768  42.0435347  13.8040750  11.9153465  42.1074680  12.8492730
  12.3099827  41.2039855  13.9981256  22.2715392  51.7790606  11.8419973
  22.7146538  51.0297931  11.4439096  21.3941902  51.7700742  11.4593705
   8.5081657  45.8712433  24.8763963   8.5569812  46.7474556  24.4941733
   9.0504171  45.3289826  24.3035606  19.1134378  53.2646023  21.4697829
  19.1632383  53.0996031  22.4113351  19.0048301  52.3973282  21.0795709
  16.4038140  49.2476951  22.7857135  17.3048003  49.1083416  22.4941133
  16.4786115  49.4131406  23.7255313  10.7380945  46.6243806  21.6310322
   9.8684255  46.9177372  21.3592910  10.9740426  47.2084251  22.3517585
  21.8148257  53.2495844  14.2342420  22.6495148  53.6885648  14.3979981
  21.9507386  52.7734498  13.4150666  18.8639763  50.8075579  20.1819908
  19.3393884  51.0003226  19.3738759  17.9405328  50.8634765  19.9363292
  13.4419979  42.8423423  19.1475742  13.9601923  43.5784450  18.8222231
  13.0875112  43.1487416  19.9822501  13.6932573  39.2623705  14.6676639
  13.9734327  38.5946894  15.2937065  14.4783180  39.4552801  14.1551302
  17.5641432  47.6841339  18.4148214  18.5158855  47.7839437  18.4360438
  17.3944882  46.8919608  18.9246298  15.5855811  44.7696923  18.6007615
  14.9905743  45.0501935  17.9054103  15.3005508  45.2590823  19.3724356
  20.0429510  50.9047459  17.5290513  20.0105830  49.9663460  17.7150197
  20.6530133  50.9831496  16.7956338  20.1923998  47.6958502  17.5748797
  19.6763047  46.9116959  17.3878725  21.0763947  47.3677219  17.7395316
  17.8534725  41.4399518  13.5344609  17.6559546  41.1314606  14.4187941
  18.4634431  42.1661157  13.6642539  25.8606059  51.9663466  16.6696550
  26.5909448  51.7048754  17.2304253  25.2513005  51.2292188  16.7098618
  23.9421357  50.1071328  17.2671001  23.2154520  49.9727293  16.6587493
  23.5268643  50.4148157  18.0727719  11.6817823  42.2430378   9.6616844
  10.8718552  41.8977463  10.0372090  12.3702240  41.9337922  10.2504455
  13.6108372  41.3208425  11.2841141  14.1639410  41.7403878  11.9431164
  13.8478458  40.3944173  11.3264097   9.6341471  47.3095499  27.0643904
   9.5338198  48.2589855  26.9955996   9.4163013  46.9813737  26.1919975
  16.9887179  43.4308950  10.7919805  16.4085848  44.0893754  10.4097857
  16.7223111  42.6086295  10.3807222  15.4390745  42.8314008  12.9941125
  15.9390523  42.9430542  12.1855444  16.0826353  42.5275061  13.6341934
  15.7712057  45.5909040   9.8476153  14.8837912  45.8758691   9.6296348
  16.1866046  45.4302804   9.0003430  19.1226593  45.6155561  13.5630492
  19.8986983  46.1052014  13.8355109  18.3974727  46.0413616  14.0202362
  21.5599151  46.3283181  14.6204433  22.1543642  46.0878917  13.9097741
  21.6325735  45.6090311  15.2477969  15.7453080  51.1063576  10.0626443
  15.6888282  51.5632128   9.2234076  16.2981423  50.3454261   9.8849286
  19.5557886  46.8953308  10.8876563  19.2994821  46.4949944  11.7184770
  18.9310754  47.6097102  10.7626702  23.8670224  49.6349381  13.3947854
  23.3069782  49.7042571  14.1679416  23.2613728  49.4590366  12.6747350
  16.4787860  52.2968358   7.3578972  16.4236664  52.1312629   6.4167417
  15.8533915  53.0044390   7.5141162   9.7883985  41.7976467   6.9364291
   9.7762655  42.7418307   7.0932562  10.6807407  41.6146612   6.6423752
  13.6036105  38.3919243  11.1910228  12.8368501  37.8377730  11.3366910
  14.0146810  38.4641112  12.0524379   5.6077866  44.6804039  25.2815409
   6.4709327  44.3240844  25.4918733   5.0343276  44.3417934  25.9690813
  26.8272156  54.7917297  13.2447656  27.1331033  53.9314660  12.9573571
  27.5524761  55.3834917  13.0446650  24.5326328  54.5915623  14.6676639
  24.8128082  53.9238812  15.2937065  25.3176935  54.7844719  14.1551302
  28.6928479  56.7691436  13.5344609  28.4953301  56.4606524  14.4187941
  29.3028185  57.4953075  13.6642539  24.4429859  53.7211161  11.1910228
  23.6762255  53.1669648  11.3366910  24.8540564  53.7933030  12.0524379
   4.8313955  18.6327708  11.5449085   5.3753859  19.2457666  11.0504040
   4.2500800  19.1907286  12.0616098   8.1542749  18.0923762  10.8810407
   7.3638293  18.0747900  10.3414906   7.9176104  18.6312055  11.6359443
   2.9540014  16.2787474  13.4077842   3.8231173  16.4528127  13.0464477
   2.4746765  17.0981891  13.2853571  14.6132489  27.9876100   2.8123117
  15.2510899  27.8682848   2.1086457  14.4953332  28.9356944   2.8711069
  11.4222196  27.9403528   2.7484641  11.0840707  27.8244593   1.8605176
  12.2911964  27.5394694   2.7285647  11.9041979  29.0938380   8.7070847
  11.8930620  28.6991178   7.8351350  12.0662618  28.3604453   9.3004618
   8.6249240  31.8775492   7.6550031   8.3339106  32.7821123   7.5396697
   9.2606224  31.9192020   8.3694100   9.5505447  29.2552340   4.2451390
  10.1469019  29.0308363   3.5308353   9.6080418  28.5137086   4.8476838
  19.5682185  25.6502787   0.7909303  20.3007357  25.0802004   1.0247133
  18.8121541  25.2624388   1.2315809  17.0907605  19.3624361   5.2503912
  16.7590930  20.2319772   5.0265127  16.4953219  19.0460645   5.9297942
  13.5839125  31.5636907   4.6499824  13.2839848  32.4661946   4.5415632
  13.2390184  31.2969091   5.5020977  16.9836269  24.0819448   2.3297262
  16.0753146  24.0134856   2.0356023  16.9323865  24.5591393   3.1579087
  11.0577135  25.5009093  10.2732159  10.2810469  26.0603013  10.2635024
  11.6967698  25.9865876  10.7947029  18.8497915  22.2835886   4.1075136
  18.2072295  22.5768419   3.4614930  18.3452844  22.1688806   4.9128332
   9.3123507  28.3094547   9.8350126  10.0538191  28.8479591   9.5584950
   8.6060492  28.9360835   9.9921678  14.7878846  30.4523687   8.4322287
  15.1962203  30.0106098   7.6876920  14.0656108  29.8776315   8.6856480
  11.1409917  25.3896294   5.8055844  11.9871112  25.8135707   5.9490493
  11.0808554  24.7329918   6.4994408  15.1107661  31.0124878   2.1874576
  14.4816524  31.1770592   1.4850644  14.7233323  31.4266487   2.9585540
  18.9896893  31.9479316  -0.4581060  18.3047931  32.3278217  -1.0084027
  19.0740742  32.5574642   0.2750888  14.2909362  23.0500662   7.4637018
  14.0470294  23.8042723   6.9271294  14.5669292  23.4286010   8.2984265
  16.2447825  29.5939275   6.1414284  16.4564720  30.2371034   5.4648665
  16.1977573  28.7601591   5.6736214   7.5559704  30.2970767   2.3904425
   8.1261061  30.7258036   1.7521909   8.1467816  30.0153352   3.0888610
   8.0484871  25.4634195  10.6365436   7.4183531  26.1450476  10.8700833
   7.9420958  25.3517276   9.6918574  17.3593653  32.4711230   4.3136641
  18.1811096  32.0691417   4.0319323  17.3556055  32.3679464   5.2652757
  11.1250256  32.0195273   6.4697351  11.1894689  32.4815681   7.3055523
  10.4161180  31.3892638   6.5979661  25.4499646  28.8149978   0.6621612
  24.6963354  28.2457377   0.5065617  25.5847187  28.7812643   1.6092247
   7.3265613  19.7654961  12.9990687   6.9332559  19.2121159  13.6738331
   8.1431754  20.0765539  13.3897205  10.2433574  21.1812840  10.5910944
  10.9843288  21.7819993  10.5115406  10.4751497  20.4390477  10.0328986
   5.3874912  26.3669207   8.8689173   5.2728427  25.4654464   9.1696272
   4.5319430  26.6132904   8.5173990  12.4666750  34.3086947  10.4676674
  12.0230604  33.5223326  10.1497578  13.1283964  34.4966098   9.8020565
  14.5647988  34.5889747   8.4958075  14.5466463  35.4098628   8.0038344
  15.4867908  34.4643822   8.7208216  11.0221042  32.1033877   9.3381584
  11.5549379  31.3422165   9.1080892  10.4935123  31.8107529  10.0805738
  17.3666601  29.4268890   1.9667442  16.7090275  30.1168151   2.0547570
  18.1707000  29.8165322   2.3101428  16.1772060  27.7813262   0.0171384
  16.6903942  28.4143254   0.5193093  16.8273284  27.1814458  -0.3485256
  16.9433856  32.7619264  -1.8549474  16.4896183  31.9210174  -1.7984283
  16.3127823  33.3980662  -1.5174694  15.3866795  34.5995760  -0.9199656
  15.6789770  35.1600818  -1.6387290  15.8965416  34.8924321  -0.1646497
  13.7966054  25.8460179   7.0674427  14.1515442  26.0731652   7.9268893
  14.4438185  26.1778556   6.4451682  19.5533171  31.0355142   2.7835027
  19.9869677  30.9430431   3.6318081  20.2664751  31.0112642   2.1455043
  13.2861066  34.6357236   4.3168128  13.3398088  35.2048172   5.0845844
  12.4175847  34.8059121   3.9522165  20.4148720  31.0778843   5.3167913
  20.6084610  31.9824653   5.5627188  20.3149339  30.6186262   6.1506498
  12.0685031  20.9636733   7.8158240  11.4212946  21.6626683   7.7222716
  12.8386046  21.3972877   8.1834488  15.4763829  31.2285585  10.8908793
  15.3249335  30.9996137   9.9738877  15.4668509  32.1856187  10.9040138
  12.2449165  28.8017498   5.8755060  13.1741225  28.9528658   5.7024027
  11.8240195  28.8901519   5.0203706  11.0437497  32.8268163   3.6453597
  10.9048583  32.4586947   4.5179536  10.2552093  33.3415802   3.4737555
  12.5942712  32.2049765   1.0342435  12.2592545  32.1650535   1.9300085
  12.0946658  31.5394481   0.5612845   6.5686956  27.6117395   6.5595016
   6.4306754  26.8797634   7.1606555   7.4791880  27.5226295   6.2779204
   9.1969257  27.3237355   6.0478696   9.9068876  26.6830547   6.0065314
   9.1538565  27.5750249   6.9704877  17.1856036  34.2604708   8.9685275
  17.1268582  33.5763928   8.3015858  17.5875554  35.0023698   8.5165901
   7.9098191  24.3102573   7.8674335   7.3735548  23.8593311   8.5195932
   7.3214899  24.4448481   7.1244800  17.1873443  32.2244292   7.1999255
  16.3000222  31.8870214   7.3225654  17.7571994  31.4927323   7.4368020
  10.7174596  36.8845744   4.1660498  10.6444768  37.6900716   4.6779803
  10.2751989  37.0837710   3.3408519  21.6690783  27.6352509   1.9615817
  21.6580660  28.5177225   1.5909750  20.8008163  27.2824060   1.7670354
  13.1773280  36.7832578   6.3218657  13.8901252  37.4180043   6.2494558
  12.6863309  36.8796444   5.5058659   8.2285193  34.5327022   7.1424228
   8.9294653  35.1663505   7.2953622   7.7580308  34.8741753   6.3819867
  16.0286479  27.0871629   4.9676778  15.3757930  27.3347537   4.3129231
  16.4066859  26.2735767   4.6339255  12.0774052  27.8291440  11.4542815
  11.4014689  27.7285570  12.1245190  12.9001686  27.6730654  11.9178812
  10.8196835  39.1358368   5.6900431  11.3715143  39.2989989   6.4549516
  11.1603029  39.7262806   5.0180456   5.2713601  23.5556650   9.9395350
   5.8985640  23.1733727  10.5532874   4.4141520  23.3370852  10.3051042
  15.6707710  33.9619625  11.5449085  16.2147614  34.5749583  11.0504040
  15.0894554  34.5199204  12.0616098  13.9565223  37.0840343   2.6764113
  13.8316362  36.2830083   2.1675059  14.6144314  37.5786537   2.1878083
  16.0200131  34.8849363   4.3043663  15.0730466  34.7654715   4.2321990
  16.3682904  33.9971861   4.3869925   8.3799704  20.7743502   8.1281905
   8.9034106  21.0205799   8.8908214   8.1612038  21.6063537   7.7085042
  13.0246564  34.6802080   0.5048015  12.8771527  33.7518787   0.6855586
  13.8500058  34.7022170   0.0205091  16.6280686  35.5030638   1.5912888
  17.5527234  35.2973500   1.4537339  16.4595989  35.2547039   2.5002230
  11.4729814  22.9165519   4.1684894  11.2147591  23.8382589   4.1669225
  10.9414854  22.5195953   4.8585358   2.2352962  28.0330975   5.0138538
   1.6906430  28.8090783   5.1458813   3.1132312  28.3801779   4.8557660
  22.2715393  28.7852729  -1.4334721  22.7146539  28.0360054  -1.8315597
  21.3941904  28.7762865  -1.8160989   3.0218984  27.1600871   7.9068695
   2.2800720  27.3083506   8.4933326   2.7011728  27.4209137   7.0435445
  10.9662647  36.7016849   7.7049085  11.2749773  36.4565996   8.5771785
  11.7638129  36.9063488   7.2167956   8.5081658  22.8774556  11.6009270
   8.5569814  23.7536679  11.2187039   9.0504172  22.3351949  11.0280913
  18.9936504  33.4215679  10.8810407  18.2032048  33.4039818  10.3414906
  18.7569859  33.9603973  11.6359443  19.1134379  30.2708146   8.1943135
  19.1632384  30.1058153   9.1358658  19.0048302  29.4035405   7.8041016
  16.4038141  26.2539074   9.5102442  17.3048004  26.1145539   9.2186440
  16.4786116  26.4193529  10.4500619  10.7380947  23.6305928   8.3555628
   9.8684256  23.9239494   8.0838217  10.9740427  24.2146373   9.0762892
  20.6152576  32.6905087   8.4385157  20.3237384  33.0535068   9.2748618
  20.0024707  31.9772095   8.2598489  21.8148258  30.2557967   0.9587727
  22.6495150  30.6947771   1.1225287  21.9507387  29.7796620   0.1395973
  18.8639764  27.8137702   6.9065215  19.3393886  28.0065348   6.0984066
  17.9405329  27.8696888   6.6608598  13.4419981  19.8485545   5.8721049
  13.9601924  20.5846572   5.5467537  13.0875113  20.1549539   6.7067808
  17.5641433  24.6903462   5.1393520  18.5158856  24.7901560   5.1605744
  17.3944883  23.8981730   5.6491605  15.5855813  21.7759045   5.3252921
  14.9905745  22.0564058   4.6299410  15.3005509  22.2652946   6.0969662
  20.0429511  27.9109582   4.2535820  20.0105831  26.9725582   4.4395504
  20.6530135  27.9893618   3.5201645  20.1923999  24.7020625   4.2994103
  19.6763048  23.9179082   4.1124032  21.0763948  24.3739342   4.4640623
  25.8606061  28.9725588   3.3941857  26.5909449  28.7110877   3.9549560
  25.2513006  28.2354310   3.4343925  23.9421358  27.1133451   3.9916308
  23.2154521  26.9789416   3.3832800  23.5268645  27.4210280   4.7973026
  11.7651534  30.8323381  11.7563681  12.6854544  31.0101980  11.9503728
  11.7301117  29.8879426  11.6043380   4.7613607  28.7424415   4.3986462
   4.9799617  29.6741523   4.4174496   5.1739381  28.3832390   5.1841266
   9.6341472  24.3157621  13.7889211   9.5338199  25.2651978  13.7201302
   9.4163014  23.9875860  12.9165281   9.4972742  27.7454760  12.6054273
   9.0139824  28.5455120  12.8118162   9.5833681  27.7562705  11.6521717
   5.4246080  31.6359295   4.6422707   6.3789333  31.6043237   4.5752638
   5.2258603  31.1749918   5.4572932   6.0145462  30.2060411   7.2093504
   6.8338351  30.7004489   7.2328341   6.2882269  29.2892379   7.1811072
  21.5599153  23.3345303   1.3449740  22.1543644  23.0941039   0.6343048
  21.6325736  22.6152434   1.9723276  23.8670226  26.6411504   0.1193161
  23.3069783  26.7104693   0.8924723  23.2613729  26.4652489  -0.6007343
   1.2680376  24.5398545   7.9085701   1.9139240  24.0297499   8.3972926
   1.0597527  25.2767226   8.4829127  13.7933768  31.6079392  13.4077842
  14.6624928  31.7820044  13.0464477  13.3140520  32.4273809  13.2853571
   5.6077867  21.6866162  12.0060716   6.4709329  21.3302966  12.2164040
   5.0343278  21.3480056  12.6936120  22.2615950  43.2695446   2.7484641
  21.9234462  43.1536511   1.8605176  23.1305718  42.8686611   2.7285647
  22.7435733  44.4230298   8.7070847  22.7324374  44.0283096   7.8351350
  22.9056373  43.6896370   9.3004618  19.4642994  47.2067410   7.6550031
  19.1732860  48.1113040   7.5396697  20.0999979  47.2483937   8.3694100
  20.3899201  44.5844258   4.2451390  20.9862773  44.3600281   3.5308353
  20.4474173  43.8429004   4.8476838  27.9301360  34.6916279   5.2503912
  27.5984685  35.5611690   5.0265127  27.3346973  34.3752563   5.9297942
  24.4232879  46.8928825   4.6499824  24.1233603  47.7953864   4.5415632
  24.0783939  46.6261008   5.5020977  17.8745361  43.3442622   0.6836529
  16.9495857  43.2118836   0.8914221  18.1229774  44.1236841   1.1806471
  27.8230023  39.4111365   2.3297262  26.9146901  39.3426774   2.0356023
  27.7717619  39.8883310   3.1579087  21.8970889  40.8301011  10.2732159
  21.1204223  41.3894931  10.2635024  22.5361452  41.3157794  10.7947029
  29.6891670  37.6127804   4.1075136  29.0466050  37.9060337   3.4614930
  29.1846598  37.4980724   4.9128332  20.1517261  43.6386464   9.8350126
  20.8931946  44.1771508   9.5584950  19.4454247  44.2652753   9.9921678
  25.6272601  45.7815605   8.4322287  26.0355957  45.3398015   7.6876920
  24.9049862  45.2068232   8.6856480  21.9803671  40.7188212   5.8055844
  22.8264866  41.1427625   5.9490493  21.9202309  40.0621836   6.4994408
  25.1303116  38.3792580   7.4637018  24.8864048  39.1334640   6.9271294
  25.4063047  38.7577927   8.2984265  27.0841579  44.9231192   6.1414284
  27.2958474  45.5662952   5.4648665  27.0371327  44.0893509   5.6736214
  24.6867808  37.5349013   3.0450856  23.8252287  37.8330266   3.3367593
  24.7130243  37.7519412   2.1131888  18.3953459  45.6262685   2.3904425
  18.9654816  46.0549953   1.7521909  18.9861570  45.3445270   3.0888610
  18.8878625  40.7926112  10.6365436  18.2577286  41.4742393  10.8700833
  18.7814713  40.6809194   9.6918574  21.9644011  47.3487191   6.4697351
  22.0288443  47.8107598   7.3055523  21.2554934  46.7184556   6.5979661
  12.4661300  40.7128399   3.9946351  12.7169339  41.5975409   4.2603927
  13.0020849  40.5333000   3.2221443  18.1659368  35.0946878  12.9990687
  17.7726313  34.5413077  13.6738331  18.9825508  35.4057457  13.3897205
  21.0827329  36.5104757  10.5910944  21.8237042  37.1111911  10.5115406
  21.3145252  35.7682395  10.0328986  16.2268667  41.6961125   8.8689173
  16.1122182  40.7946382   9.1696272  15.3713185  41.9424821   8.5173990
  23.3060505  49.6378865  10.4676674  22.8624359  48.8515244  10.1497578
  23.9677718  49.8258015   9.8020565  25.4041743  49.9181665   8.4958075
  25.3860218  50.7390546   8.0038344  26.3261663  49.7935740   8.7208216
  21.8614797  47.4325794   9.3381584  22.3943134  46.6714083   9.1080892
  21.3328878  47.1399446  10.0805738  25.0284492  32.5385860   4.8675225
  24.6848761  33.4287502   4.7914336  25.3963454  32.3487518   4.0044810
  22.5781885  37.3744172  -1.5667101  21.7223482  36.9851023  -1.7461463
  22.9908837  37.4536133  -2.4267316  24.1081032  34.9090515   2.8324459
  23.6045828  34.8720651   2.0192264  24.4011639  35.8183258   2.8921115
  20.3523918  34.9929245   1.8390640  21.2176915  34.7972054   1.4796530
  20.4201427  34.7639597   2.7659997  17.9586237  37.2231453  -0.7892993
  18.5329989  37.0006635  -1.5219800  18.5457220  37.2920148  -0.0364392
  20.2608905  34.0972702  -2.0617923  19.6073317  33.7821719  -2.6861309
  20.2189379  33.4748442  -1.3358101  23.4946645  40.5854636   2.2629724
  22.5769207  40.8069583   2.1051412  23.9106789  40.6600946   1.4041431
  26.8272157  31.7979420  -0.0307037  27.1331034  30.9376783  -0.3181122
  27.5524762  32.3897040  -0.2308043  21.0993237  42.0933213   0.4769154
  21.1541847  41.1407049   0.4011631  20.2884439  42.2492652   0.9610452
  19.0385597  40.7110272  -1.7640467  18.2253463  41.0104443  -1.3575275
  19.5344591  40.3165961  -1.0465985  24.6359809  41.1752097   7.0674427
  24.9909196  41.4023570   7.9268893  25.2831940  41.5070474   6.4451682
  18.5299672  38.2828628   3.8520768  19.1699051  38.1417387   3.1543731
  17.6977202  37.9963141   3.4759370  17.0053214  39.6666710   5.7992579
  17.6776267  39.4584072   5.1505228  16.1783000  39.4688796   5.3597811
  22.9078786  36.2928651   7.8158240  22.2606701  36.9918601   7.7222716
  23.6779801  36.7264795   8.1834488  26.3157584  46.5577503  10.8908793
  26.1643090  46.3288055   9.9738877  26.3062263  47.5148105  10.9040138
  23.0842920  44.1309416   5.8755060  24.0134980  44.2820575   5.7024027
  22.6633950  44.2193437   5.0203706  21.8831252  48.1560080   3.6453597
  21.7442337  47.7878865   4.5179536  21.0945848  48.6707720   3.4737555
  17.4080711  42.9409313   6.5595016  17.2700509  42.2089552   7.1606555
  18.3185634  42.8518213   6.2779204  20.0363011  42.6529272   6.0478696
  20.7462630  42.0122464   6.0065314  19.9932320  42.9042167   6.9704877
  28.0249790  49.5896626   8.9685275  27.9662336  48.9055846   8.3015858
  28.4269309  50.3315616   8.5165901  18.7491945  39.6394490   7.8674335
  18.2129302  39.1885229   8.5195932  18.1608654  39.7740399   7.1244800
  28.0267197  47.5536210   7.1999255  27.1393976  47.2162131   7.3225654
  28.5965748  46.8219241   7.4368020  14.4831067  38.7750498   4.9527330
  14.3989255  38.1676167   4.2177740  13.6613773  39.2659516   4.9536826
  24.6554781  37.2604061   0.3197525  25.1523480  36.5074024  -0.0001405
  23.8841762  37.2968378  -0.2459266  21.2389749  39.4021444   0.0469210
  20.8687537  38.8492485   0.7350115  21.7348842  38.7979578  -0.5055790
  19.0678948  49.8618939   7.1424228  19.7688407  50.4955422   7.2953622
  18.5974063  50.2033671   6.3819867  27.0973775  34.2273655   2.4676884
  26.1836855  34.4577882   2.6359091  27.5266877  34.3112099   3.3190916
  26.8680234  42.4163547   4.9676778  26.2151684  42.6639454   4.3129231
  27.2460614  41.6027685   4.6339255  22.9167807  43.1583358  11.4542815
  22.2408444  43.0577487  12.1245190  23.7395441  43.0022572  11.9178812
  16.6355083  36.8125435   6.2922316  16.6996409  37.6740266   5.8799713
  16.5722203  36.1999437   5.5594674  16.1107356  38.8848568   9.9395350
  16.7379394  38.5025645  10.5532874  15.2535274  38.6662770  10.3051042
  26.5101464  49.2911543  11.5449085  27.0541368  49.9041501  11.0504040
  25.9288309  49.8491121  12.0616098  16.4167145  38.7680993   1.8541253
  15.6953731  39.3816961   1.7148727  17.2060401  39.3038758   1.7757899
  19.2193459  36.1035420   8.1281905  19.7427861  36.3497716   8.8908214
  19.0005792  36.9355455   7.7085042  20.4246004  37.0449115   5.8131576
  20.0842824  36.2456928   6.2152256  19.7185010  37.3450826   5.2408409
  21.0762476  34.1298427   4.2658899  21.8988545  33.6558906   4.1437789
  21.3200539  34.9088911   4.7657585  18.6001054  40.8217548   2.0750877
  18.4545635  41.1357851   2.9675159  18.1226258  41.4402448   1.5221776
  20.4597437  37.8120096   2.1231767  20.4459006  36.9161189   1.7864065
  21.1769865  37.8190760   2.7570053  22.3123568  38.2457436   4.1684894
  22.0541346  39.1674507   4.1669225  21.7808608  37.8487871   4.8585358
  13.0746717  43.3622892   5.0138538  12.5300185  44.1382700   5.1458813
  13.9526066  43.7093697   4.8557660  19.8634333  36.6934476  -2.6080663
  19.9850244  35.7651123  -2.4089776  19.5736376  36.7073162  -3.5202348
  22.7325524  34.3789387   0.5286057  22.7547220  34.4428720  -0.4261964
  23.1493583  33.5393895   0.7226563  13.8612738  42.4892789   7.9068695
  13.1194474  42.6375424   8.4933326  13.5405483  42.7501054   7.0435445
  21.8056401  52.0308767   7.7049085  22.1143528  51.7857914   8.5771785
  22.6031883  52.2355405   7.2167956  19.3475413  38.2066474  11.6009270
  19.3963568  39.0828597  11.2187039  19.8897927  37.6643867  11.0280913
  29.8330258  48.7507597  10.8810407  29.0425802  48.7331736  10.3414906
  29.5963613  49.2895891  11.6359443  29.9528133  45.6000063   8.1943135
  30.0026138  45.4350071   9.1358658  29.8442057  44.7327322   7.8041016
  27.2431896  41.5830991   9.5102442  28.1441759  41.4437456   9.2186440
  27.3179870  41.7485446  10.4500619  21.5774701  38.9597846   8.3555628
  20.7078011  39.2531412   8.0838217  21.8134182  39.5438291   9.0762892
  31.4546330  48.0197005   8.4385157  31.1631139  48.3826985   9.2748618
  30.8418462  47.3064013   8.2598489  29.7033519  43.1429619   6.9065215
  30.1787640  43.3357266   6.0984066  28.7799084  43.1988805   6.6608598
  24.2813735  35.1777463   5.8721049  24.7995679  35.9138490   5.5467537
  23.9268868  35.4841456   6.7067808  24.5326329  31.5977746   1.3921945
  24.8128083  30.9300935   2.0182372  25.3176936  31.7906841   0.8796609
  28.4035188  40.0195380   5.1393520  29.3552610  40.1193477   5.1605744
  28.2338638  39.2273648   5.6491605  26.4249567  37.1050963   5.3252921
  25.8299499  37.3855976   4.6299410  26.1399264  37.5944864   6.0969662
  31.0317754  40.0312543   4.2994103  30.5156802  39.2470999   4.1124032
  31.9157702  39.7031259   4.4640623  28.6928481  33.7753558   0.2589916
  28.4953302  33.4668646   1.1433248  29.3028186  34.5015197   0.3887846
  22.6045289  46.1615298  11.7563681  23.5248298  46.3393897  11.9503728
  22.5694872  45.2171344  11.6043380  15.6007361  44.0716333   4.3986462
  15.8193371  45.0033441   4.4174496  16.0133135  43.7124307   5.1841266
  22.5211579  34.5784418  -3.6137849  21.7112307  34.2331503  -3.2382603
  23.2095996  34.2691962  -3.0250238  24.4502127  33.6562465  -1.9913553
  25.0033166  34.0757919  -1.3323530  24.6872214  32.7298213  -1.9490597
  20.4735227  39.6449539  13.7889211  20.3731954  40.5943896  13.7201302
  20.2556769  39.3167778  12.9165281  26.2784501  35.1668048  -0.2813568
  26.7784279  35.2784583  -1.0899249  26.9220109  34.8629101   0.3587240
  20.3366497  43.0746678  12.6054273  19.8533578  43.8747038  12.8118162
  20.4227436  43.0854622  11.6521717  16.2639834  46.9651212   4.6422707
  17.2183088  46.9335155   4.5752638  16.0652358  46.5041836   5.4572932
  16.8539216  45.5352328   7.2093504  17.6732105  46.0296407   7.2328341
  17.1276024  44.6184297   7.1811072  12.1074131  39.8690462   7.9085701
  12.7532994  39.3589416   8.3972926  11.8991282  40.6059144   8.4829127
  24.6327523  46.9371310  13.4077842  25.5018682  47.1111962  13.0464477
  24.1534274  47.7565727  13.2853571  24.4429860  30.7273284  -2.0844466
  23.6762256  30.1731770  -1.9387783  24.8540565  30.7995152  -1.2230314
  16.4471622  37.0158079  12.0060716  17.3103083  36.6594884  12.2164040
  15.8737032  36.6771974  12.6936120  29.0053122  50.4238796  12.9990687
  28.6120068  49.8704995  13.6738331  29.8219263  50.7349374  13.3897205
  31.9221083  51.8396675  10.5910944  32.6630797  52.4403828  10.5115406
  32.1539006  51.0974313  10.0328986  26.9501110  54.2140485   9.9395350
  27.5773149  53.8317563  10.5532874  26.0929029  53.9954687  10.3051042
  30.1869167  53.5358391  11.6009270  30.2357323  54.4120514  11.2187039
  30.7291681  52.9935784  11.0280913  31.3128981  54.9741456  13.7889211
  31.2125708  55.9235813  13.7201302  31.0950523  54.6459695  12.9165281
  27.2865376  52.3449997  12.0060716  28.1496838  51.9886802  12.2164040
  26.7130787  52.0063892  12.6936120  26.5101465  26.2973665  -1.7305608
  27.0541369  26.9103624  -2.2250653  25.9288310  26.8553244  -1.2138595
  29.8330260  25.7569720  -2.3944287  29.0425803  25.7393858  -2.9339787
  29.5963614  26.2958013  -1.6395250  24.6327524  23.9433432   0.1323148
  25.5018684  24.1174085  -0.2290217  24.1534275  24.7627849   0.0098878
  29.0053124  27.4300919  -0.2764006  28.6120069  26.8767117   0.3983638
  29.8219264  27.7411497   0.1142511  31.9221085  28.8458798  -2.6843750
  32.6630798  29.4465951  -2.7639287  32.1539007  28.1036435  -3.2425707
  26.9501111  31.2202608  -3.3359343  27.5773150  30.8379685  -2.7221819
  26.0929030  31.0016810  -2.9703651  30.1869169  30.5420514  -1.6745424
  30.2357324  31.4182637  -2.0567654  30.7291683  29.9997907  -2.2473781
  31.3128982  31.9803579   0.5134518  31.2125709  32.9297936   0.4446609
  31.0950524  31.6521818  -0.3589412  22.9467886  32.2044503  -5.3668992
  23.5926750  31.6943456  -4.8781767  22.7385037  32.9413184  -4.7925567
  27.2865377  29.3512120  -1.2693978  28.1496839  28.9948924  -1.0590653
  26.7130788  29.0126014  -0.5818574
  56.0825762  56.0825762  56.0825762 109.4712190 109.4712190 109.4712190
