default_name
 10998
  20.9428096  26.7422711  36.6364587  21.1236000  26.0825362  35.7878334
  20.9370943  25.0500865  36.0834031  22.1584341  26.1851283  35.4611959
  20.2041007  26.4290691  34.6150861  19.3941963  27.3512634  34.7075977
  21.2576766  26.4689958  33.8065878  21.9193921  25.7059710  33.8015697
  21.5184389  27.6159079  32.9445729  20.7768150  28.3936305  33.1235464
  22.8975657  28.2077624  33.2447722  23.2762726  27.7075056  34.1360765
  23.5416475  27.9750179  32.3967813  22.8855718  29.7025829  33.4728530
  22.8412997  30.2280135  34.7583866  22.8156569  29.5485207  35.5974413
  22.8299010  31.5927470  34.9737388  22.7955813  31.9806619  35.9814661
  22.8631663  32.4521975  33.8963521  22.8518463  33.8122160  34.1061579
  22.8920771  33.9763265  35.0614370  22.9070851  31.9564665  32.6073820
  22.9323452  32.6279729  31.7624902  22.9174082  30.5886143  32.4047622
  22.9516354  30.1927422  31.4007329  21.4300520  27.2121464  31.4772807
  21.5208843  26.0301180  31.1470452  21.2519889  28.2004080  30.6068770
  21.1106960  29.1443143  30.9372958  21.2082405  27.9570800  29.1689870
  20.8049513  26.9647281  28.9714081  20.2969744  28.9760391  28.4809568
  20.1638364  28.6788472  27.4407402  19.3304230  28.9761241  28.9848203
  20.8562503  30.2772701  28.5323033  20.1847553  30.8510889  28.8513525
  22.6098970  28.0219124  28.5734152  23.4781603  28.7228492  29.0936568
  22.8190486  27.2872531  27.4853939  21.8388044  26.5074390  26.7818064
  20.8837207  27.0266154  26.8616264  21.7680422  25.5393158  27.2776181
  22.3104969  26.3913159  25.3747156  21.9572086  27.2211114  24.7625670
  21.9989625  25.4492520  24.9235358  23.7912424  26.4344453  25.5483868
  24.2469809  26.7689167  24.6164371  24.2520130  25.4976823  25.8618594
  23.9818696  27.4979782  26.6315143  24.8978051  27.3361391  27.2018258
  24.0058188  28.9288956  26.1039983  23.6418745  29.1767103  24.9553149
  24.4359467  29.8586201  26.9503541  24.6151380  29.6192488  27.9150775
  24.6300985  31.2422020  26.5340066  24.5877255  31.3144215  25.4473899
  23.5381603  32.1638067  27.1087323  23.9047415  33.1907889  27.1330159
  22.2909506  32.1174117  26.2394410  21.5289107  32.7746498  26.6613583
  21.9101620  31.0958856  26.2038268  22.5385886  32.4490865  25.2297236
  23.2051722  31.7439847  28.4377340  22.9610716  30.8379659  28.3850190
  25.9969904  31.7485833  26.9831375  26.7803212  32.2373034  26.1695323
  26.2714897  31.6263755  28.2776306  25.6477604  31.1063546  28.8781633
  27.4358205  32.2664593  28.8785069  28.0114047  32.7861392  28.1117184
  27.0014858  33.3023069  29.9169785  26.1911502  32.8810816  30.5119782
  27.8498211  33.5238747  30.5645393  26.5587223  34.4957563  29.2940675
  26.6464653  35.1838675  29.9286180  28.3445699  31.2257072  29.5233663
  27.9147903  30.4809497  30.4038700  29.5962269  31.1843330  29.0781517
  30.0885199  31.8849548  27.9241427  30.0896171  32.9485184  28.1627458
  29.3932912  31.6974156  27.1058610  31.4563552  31.3598538  27.6402755
  32.1516289  32.1494733  27.3553291  31.4504063  30.5869199  26.8717449
  31.8021952  30.7841660  28.9713251  32.0522469  31.6415892  29.5961440
  32.6219871  30.0662142  28.9955371  30.5171633  30.1267436  29.4802148
  30.2314854  29.1860290  29.0099912  30.4754743  29.9277884  30.9915969
  30.6505181  28.8116039  31.4795773  30.2430097  31.0149684  31.7199355
  30.0612915  31.8982889  31.2651579  30.2862731  30.9836558  33.1774563
  31.3014180  30.7761385  33.5159403  29.8690506  32.3377926  33.7541224
  29.4337521  32.1775435  34.7404969  30.7553572  32.9655356  33.8463141
  28.9210986  32.9792082  32.9182880  29.4070449  33.4405686  32.2587603
  29.3782975  29.8832114  33.7149274  29.6647913  29.2895316  34.7542867
  28.2886717  29.6192048  33.0011305  28.1098426  30.1284955  32.1474664
  27.3047562  28.6358731  33.4385081  27.6641313  28.1209015  34.3294177
  25.9845766  29.3225992  33.7955209  25.3045992  29.1744129  32.9566105
  25.5881597  28.8190108  34.6771969  26.1202197  30.8008834  34.0785189
  25.5989727  31.7467813  33.2046387  25.0927562  31.4076948  32.3130596
  25.7191473  33.0993600  33.4579740  25.3072580  33.8175212  32.7649994
  26.3668436  33.5235854  34.5979495  26.4897290  34.8699686  34.8547872
  26.0298338  35.3595138  34.1551660  26.8945245  32.6046605  35.4848706
  27.4026808  32.9341009  36.3787275  26.7677865  31.2533663  35.2206141
  27.1772058  30.5277668  35.9083379  27.0751928  27.5908882  32.3529432
  26.8325103  26.4214027  32.6522286  27.1540933  28.0207578  31.0976135
  27.4284887  28.9739147  30.9070917  26.8090422  27.1623365  29.9706283
  27.4152622  26.2572760  29.9915544  25.3402836  26.7419203  30.0473587
  24.7731655  27.5403520  30.5258805  24.9675965  26.5889052  29.0345455
  25.1904647  25.5455375  30.7910977  24.3879226  25.1455890  30.5083108
  27.0810185  27.8778617  28.6511763  26.2884890  28.7148163  28.2199767
  28.2016667  27.5414719  28.0221806  29.2490513  26.7408076  28.5932831
  28.8854361  25.7132615  28.5875209  29.3651598  27.0788117  29.6230264
  30.4964554  26.9111109  27.7951598  30.9061774  25.9386234  27.5222219
  31.2375067  27.4694391  28.3671861  30.0653137  27.6780329  26.5906095
  29.9763027  26.9845851  25.7543642  30.7894766  28.4541229  26.3428757
  28.7039117  28.3103437  26.8892640  28.8704010  29.3459535  27.1858963
  27.6906682  28.3060377  25.7491640  27.1078320  27.2686263  25.4355311
  27.4897126  29.4691569  25.1387022  27.9524685  30.3018561  25.4742143
  26.5847015  29.5916622  24.0026791  25.5550643  29.4475551  24.3285415
  26.6794254  30.9849348  23.3529346  26.2476459  31.7296036  24.0245214
  28.1320928  31.3552257  23.0951999  28.1795961  32.3440070  22.6350261
  28.5803399  30.6201366  22.4238166  28.6777229  31.3661376  24.0398642
  25.9621746  30.9872152  22.1124556  25.0656318  30.7896836  22.3156042
  26.8973805  28.5308189  22.9536195  28.0581517  28.1689830  22.7573589
  25.8581592  28.0397047  22.2870192  24.9189786  28.2919812  22.5597746
  26.0291803  27.0991555  21.1857931  26.8879861  26.4562405  21.3747343
  24.7958534  26.2033695  21.0508362  24.8331028  25.7014760  20.0839781
  24.8161932  25.4591493  21.8469660  23.6017873  26.9614915  21.1435897
  23.3723299  26.9985911  22.0540856  26.2797183  27.8458081  19.8803224
  25.7570658  28.9421149  19.6761908  27.0795506  27.2449342  19.0046400
  27.5740833  27.8229386  17.7856005  28.4422347  28.4437570  18.0069556
  26.7942555  28.4370304  17.3352021  27.9175978  26.6331971  16.9480602
  28.6856979  26.8596525  16.2085744  27.0428379  26.2184034  16.4472181
  28.4264397  25.6976789  17.9932366  29.5046830  25.8561251  17.9736098
  28.2095415  24.6512114  17.7788526  27.8703699  26.0749951  19.3674847
  27.2361610  25.3301225  19.8478115  28.9702937  26.4583368  20.3526542
  29.5077837  27.5640658  20.2891645  29.2953957  25.5393925  21.2552859
  28.8292909  24.6433766  21.2542117  30.2869912  25.8016904  22.2920536
  30.4257347  26.8761021  22.4126927  29.8183609  25.2383103  23.6356932
  30.5540087  24.5151790  23.9878332  29.7426496  26.0567778  24.3515695
  28.4711369  24.5515461  23.5412131  28.3735521  23.4084807  23.0956699
  27.4212636  25.2488900  23.9619108  27.5497221  26.1938921  24.3238493
  26.4884390  24.8398396  23.9231825  31.6322486  25.1949297  21.9103296
  31.7096673  24.3642688  21.0042757  32.6842279  25.6144402  22.6057075
  32.5530192  26.2258127  23.3988704  34.0459989  25.2527747  22.2293359
  34.0361751  24.3560736  21.6100439  34.6922193  26.3756559  21.4144971
  34.9463199  27.1742600  22.1114645  35.6051239  25.9728537  20.9757996
  33.8074702  26.9257286  20.3193350  32.7624155  27.7920230  20.6128851
  32.5907650  28.0699282  21.6422256  31.9502743  28.2987154  19.6154893
  31.1433145  28.9708545  19.8652608  32.1780691  27.9388309  18.3048781
  31.3710780  28.4397693  17.3090211  30.7898343  29.1139509  17.6935000
  33.2098280  27.0776886  17.9847633  33.3890797  26.7948013  16.9581433
  34.0156838  26.5784963  18.9902981  34.8252757  25.9048765  18.7495754
  34.8829063  24.9567119  23.4693814  35.5135120  23.9041845  23.5597613
  34.8792876  25.8901363  24.4158732  34.3866307  26.7590368  24.2662053
  35.6120203  25.7171169  25.6646902  35.8717226  24.6678809  25.8012750
  36.9132421  26.5214559  25.6372934  36.9351481  27.1787620  26.5065276
  37.7528226  25.8280040  25.6855551  37.0095803  27.2974361  24.4565116
  36.8576845  28.1916166  24.7036996  34.7541775  26.1467152  26.8504798
  34.4601847  27.3301922  27.0121693  34.3612051  25.1777488  27.6707711
  33.5625315  25.3297582  28.8559262  32.7922941  26.0788343  28.6722974
  34.2010707  25.6593154  29.6755350  32.9951547  23.9696185  29.0883861
  32.1095014  23.7929346  28.4780584  32.7498458  23.8103780  30.1384182
  34.1296880  23.0961509  28.6680640  33.6760975  22.1425547  28.3978625
  34.9310269  22.9259633  29.3870854  34.6867981  23.7799901  27.4176388
  35.7463931  23.6812695  27.1798117  33.8897962  23.2520422  26.2302976
  32.8463146  23.8055625  25.8819655  34.3874118  22.1826170  25.6173788
  35.3232008  21.8688764  25.8317737  33.6293324  21.4556236  24.6062873
  33.5841835  22.0371454  23.6852618  34.2825676  20.1011231  24.2748779
  33.6862557  19.5842053  23.5221939  35.6838949  20.3084442  23.7206200
  36.1312618  19.3394777  23.4916206  36.2952970  20.8249468  24.4608898
  35.6302351  20.9075939  22.8108116  34.3564583  19.3000554  25.4608327
  34.7639126  18.4562390  25.2521341  32.1991473  21.2176847  25.0796083
  31.2868327  21.0765737  24.2663810  32.0165118  21.1742406  26.3958510
  32.8087888  21.2496234  27.0177142  30.6960275  20.9727245  26.9800373
  30.2497534  20.0588368  26.5867758  30.7981680  20.8261613  28.4990460
  31.7888373  21.1527504  28.8152946  30.0421022  21.4600163  28.9623951
  30.5950503  19.4809280  28.8970904  31.0099999  19.3783791  29.7333377
  29.7728808  22.1345531  26.6261749  30.2089691  23.2843701  26.5749708
  28.5043150  21.8235206  26.3854087  27.8951854  20.5259210  26.2759982
  27.6499543  20.1495223  27.2691175  28.5830373  19.8365575  25.7863691
  26.6832318  20.8003173  25.4523683  25.9518932  19.9986572  25.5552466
  26.9453428  20.9196010  24.4010973  26.1721155  22.0799911  26.0219481
  25.6396867  21.8608159  26.9474646  25.5351479  22.6774428  25.3697032
  27.4620299  22.8415899  26.3319982  27.7163827  23.5954824  25.5860158
  27.3286924  23.5412401  27.6800129  26.8693597  24.6807182  27.7496491
  27.7336073  22.8512520  28.7414433  28.0818979  21.9099713  28.6283791
  27.6477901  23.3992659  30.0899451  26.9818294  24.2626227  30.1000167
  27.0787774  22.3593504  31.0560343  26.5339530  22.8775896  31.8451437
  26.3946229  21.7115601  30.5079462  28.1113544  21.5769671  31.6306777
  28.7114813  21.3664420  30.9379586  29.0206732  23.8622949  30.5668193
  30.0426170  23.4662659  30.0055110  29.0321023  24.6984947  31.5997802
  28.1626280  24.9912263  32.0221837  29.9102612  25.0412270  31.9623700
  23.7872194  29.2098781  58.2919956  23.1133893  29.5130478  58.9004913
  24.1738016  30.0127861  57.9425413  27.6929080  26.4949037  56.5647402
  27.6142711  26.1608900  57.4583160  28.5138746  26.9870805  56.5638874
  25.2633031  23.8117032  56.1857380  25.9668882  24.0167035  56.8015036
  24.5395680  24.3793794  56.4506464  28.5071964  30.5484336  55.9488700
  27.6301431  30.4273137  55.5850947  28.9829717  29.7570414  55.6967589
  31.2527273  31.4848723  55.7505810  30.3458729  31.1881836  55.8268524
  31.5303254  31.1878541  54.8840096  30.0226058  28.3435658  55.8917789
  30.8845222  28.6690557  56.1513607  30.2076402  27.5567154  55.3790855
  23.7872195   6.2160904  45.0165262  23.1133894   6.5192600  45.6250220
  24.1738017   7.0189984  44.6670719  27.6929081   3.5011159  43.2892709
  27.6142712   3.1671023  44.1828467  28.5138748   3.9932927  43.2884181
  25.2633033   0.8179155  42.9102687  25.9668883   1.0229157  43.5260343
  24.5395681   1.3855917  43.1751771  28.4680527  13.5794240  50.9814740
  27.9045392  13.4884177  50.2131027  28.3532922  12.7594144  51.4617232
  34.0480086  17.2465207  46.2929204  33.3968066  17.8319288  45.9063218
  34.8424449  17.7771402  46.3524242  27.9735713  14.3354344  46.6916339
  28.7466589  13.7883332  46.5529215  28.3261112  15.1998594  46.9030800
  30.3101991  10.4947011  44.3234789  30.5627512   9.9728532  43.5618252
  29.3726550  10.3313156  44.4261472  35.3545274   9.4982789  52.1309532
  36.1408363   9.0802212  51.7799949  35.6183978  10.4028881  52.2991180
  35.5255351  14.9355639  46.8298189  34.8901184  15.0090266  47.5419093
  35.1952757  15.5249238  46.1517268  30.0298280  12.3975117  46.5259164
  29.9134538  11.7220020  47.1940248  30.1400540  11.9107490  45.7091317
  32.3729821  11.8585264  50.2305853  32.0088028  11.3315885  50.9418774
  33.2296936  11.4683733  50.0572338  32.0135308   6.8875163  45.2267201
  32.1809710   7.7555400  45.5937672  31.8232477   7.0502445  44.3028491
  31.9924528   9.3432821  46.2113868  31.8724154   9.7889872  47.0499349
  31.2977117   9.6918139  45.6527406  29.7531421  22.1136463  49.8603999
  29.6755450  23.0644288  49.9392480  29.1493064  21.7682335  50.5178926
  37.6909595   9.8154294  47.0394202  38.6027451  10.0481681  46.8641900
  37.1819242  10.3991338  46.4769281  36.2979177  14.7980112  54.4307784
  35.6688039  14.9625827  53.7283852  35.9104839  15.2121722  55.2018748
  40.1768409  15.7334550  51.7852148  39.4919447  16.1133452  51.2349181
  40.2612258  16.3429877  52.5184095  31.8507139  14.5354521  51.6957869
  32.3145484  14.8142224  50.9062491  31.5863937  13.6337965  51.5130960
  30.7876025  10.6577673  48.5047434  31.4900068  11.1098717  48.9721360
  30.4556653  10.0161492  49.1327327  32.0269789  17.4718616  48.5809539
  31.8915464  18.3170151  49.0094387  32.5679602  17.6737893  47.8175473
  25.4799187  14.9894054  49.1537464  25.9923707  15.7837304  49.3043029
  26.1321900  14.2920344  49.0871066  27.2894072  18.1059810  51.2360217
  27.4660700  19.0277775  51.0481201  28.0850905  17.7918229  51.6654597
  23.4448104  13.3182708  49.9297035  24.2823326  13.7279716  49.7130743
  23.6226371  12.3782150  49.8997229  35.3412536  10.9857789  45.6180868
  34.8259159  11.7562393  45.8569255  35.0689844  10.3122925  46.2413929
  40.3146810  13.7390143  47.5534041  39.5376253  13.4001303  47.1089203
  40.9938291  13.7442766  46.8789006  35.1298839   8.8584881  47.4440649
  34.8248974   9.1731030  48.2950792  36.0829281   8.9366301  47.4867982
  33.5745271  15.0175104  49.0933603  33.0466632  14.2827864  48.7806840
  33.0732773  15.7949780  48.8473571  37.3643576  11.5668497  52.2604591
  37.8775457  12.1998489  52.7626301  38.0144799  10.9669693  51.8947951
  28.6333585   7.7099231  45.4736100  27.7970898   8.0473918  45.7945374
  28.4938355   7.5748211  44.5363237  31.7197871  12.8355314  42.0968576
  30.8124933  12.6044568  42.2959725  32.2168903  12.0392933  42.2842558
  34.6265950  21.5452821  45.0165262  33.9527649  21.8484518  45.6250220
  35.0131772  22.3481902  44.6670719  34.6259454  10.4409368  49.6365612
  35.3731273  10.9530766  49.3272734  34.8951044  10.1193421  50.4970005
  32.8986104  12.9367909  46.6192566  31.9897324  12.6526942  46.7165036
  32.9281188  13.3566988  45.7595873  38.1305372  16.5474499  50.3883734
  37.6767699  15.7065408  50.4448924  37.4999338  17.1835897  50.7258514
  37.0738291   7.4766485  51.6184401  36.3361048   6.9643871  51.9494644
  37.3265065   7.0366866  50.8067678  36.5738311  18.3850995  51.3233552
  36.8661285  18.9456052  50.6045917  37.0836932  18.6779556  52.0786711
  32.5962192  14.4776653  43.9580645  32.1581622  13.7612512  43.4986282
  33.3372633  14.7052768  43.3965736  31.5371936  19.1631346  52.4127005
  31.4948115  19.3892193  51.4835537  32.4534635  18.9294721  52.5612806
  40.7135307  12.7533850  50.0156963  40.5753206  12.9435446  49.0878152
  40.3571526  13.5153233  50.4725014  29.6537737  16.0394375  52.2088968
  30.4478335  15.5444695  52.0071543  28.9429429  15.5112238  51.8456673
  34.4732581  18.4212471  56.5601335  34.5269604  18.9903407  57.3279051
  33.6047363  18.5914356  56.1955372  25.9620500  10.1837457  48.2848720
  25.0318089  10.1221913  48.5018683  26.0577972   9.6613410  47.4885362
  32.8257165  21.7132494  47.2312341  33.0008921  21.2420537  48.0457964
  32.1389953  22.3398260  47.4593602  33.7814228  15.9905000  53.2775643
  33.4464061  15.9505770  54.1733292  33.2818174  15.3249716  52.8046053
  36.7173420  13.3361034  43.5512702  36.1002590  12.6107863  43.4545755
  36.2489908  14.0970395  43.2079777  27.3918250  24.8621857  54.0052202
  27.6314848  25.4940381  54.6831220  26.5487447  24.5109897  54.2917561
  28.5071966   7.5546459  42.6734007  27.6301432   7.4335259  42.3096253
  28.9829719   6.7632537  42.4212895  31.9046112  20.6700979  56.4093705
  31.8316284  21.4755951  56.9213010  31.4623505  20.8692945  55.5841727
  31.6935892  19.9072749  49.9196527  30.9103414  20.4494429  50.0134752
  32.3928637  20.4246729  50.3190768  34.3644796  20.5687813  58.5651864
  35.0772768  21.2035278  58.4927766  33.8734824  20.6651679  57.7491866
  36.0862323  14.4739066  50.1369156  35.1518601  14.5940528  49.9673860
  36.2638991  13.5711533  49.8729166  37.5411105  16.6600206  47.6705342
  37.8170949  16.5456801  48.5799216  36.6715604  16.2617691  47.6317515
  34.1765169  20.9086557  51.3138156  34.3587564  20.0908213  51.7765908
  34.9998155  21.1254249  50.8763046  34.5107334  19.8354742  48.5753204
  35.0395101  19.3247197  47.9623366  34.7735554  19.5197272  49.4398737
  27.8663082  20.8869859  51.3350980  27.1973458  21.3715987  50.8515020
  27.7275952  21.1339079  52.2494359  32.0068351  22.9213602  57.9333638
  32.5586659  23.0845224  58.6982724  32.3474544  23.5118040  57.2613663
  35.1436738  20.8695578  54.9197321  35.0187878  20.0685318  54.4108266
  35.8015829  21.3641771  54.4311291  37.2071647  18.6704598  56.5476871
  36.2601982  18.5509949  56.4755197  37.5554420  17.7827096  56.6303132
  34.2118080  18.4657314  52.7481223  34.0643042  17.5374022  52.9288793
  35.0371573  18.4877405  52.2638298  37.8152202  19.2885873  53.8346096
  38.7398749  19.0828734  53.6970547  37.6467505  19.0402274  54.7435437
  30.0648471   5.6150003  46.8055008  30.7856834   5.9931256  46.3018725
  29.4413776   6.3338880  46.9089986  34.2079594   6.3195152  47.7413340
  34.4243209   7.2019790  47.4402168  33.7273661   5.9281365  47.0118982
  37.6047518  19.8071540  49.1908187  37.7784396  19.2417963  48.4382040
  38.0976409  20.6072435  49.0087677  38.5922691  19.1238305  46.2905085
  39.2873595  19.7444998  46.5092400  38.9345841  18.2733656  46.5657463
  40.4914114  16.5738010  47.8192416  41.0165438  16.9125283  47.0941736
  40.4036466  15.6385026  47.6355551  32.1754774  22.6409994  52.1787669
  31.7359765  22.1486372  52.8720526  32.9262891  22.0982961  51.9379745
  24.6547113  18.8321535  52.1812297  25.4805133  18.5325306  51.8010941
  24.3041165  18.0629157  52.6302086  29.6228647  18.1848003  54.2509971
  29.0008656  17.5218708  53.9512199  30.2933513  18.2109135  53.5683619
  29.1842153  16.7351926  47.7268432  29.3330274  17.4187391  47.0735104
  29.9908597  16.7157016  48.2417887  26.9394786  12.7617104  48.7329500
  26.6940828  11.8579434  48.9309711  27.1090701  12.7634254  47.7908978
  26.2090434   8.4945461  46.2315662  25.5159679   8.5689816  45.5755698
  25.9642186   7.7305805  46.7537179  32.6837559  19.2300057  45.1980179
  32.1111526  19.8490244  44.7450651  33.2570353  19.7799418  45.7320101
  35.9034819  19.5137207  46.3288761  36.8365492  19.4482768  46.5321637
  35.8158032  20.3493474  45.8703294  38.5322835  18.8303077  43.2892709
  38.4536467  18.4962941  44.1828467  39.3532502  19.3224845  43.2884181
  33.0684357  10.5660869  42.5396231  34.0143462  10.4367077  42.6084649
  32.6898602   9.8275531  43.0165660  31.2527275   8.4910846  42.4751117
  30.3458730   8.1943958  42.5513830  31.5303256   8.1940664  41.6085403
  30.0226059   5.3497781  42.6163096  30.8845223   5.6752679  42.8758913
  30.2076403   4.5629277  42.1036162  36.9583574   6.3826398  48.8154667
  36.0709429   6.6676048  48.5974862  37.3737563   6.2220161  47.9681944
  24.9667824  20.9634149  53.9026112  24.8322292  20.2034550  53.3364110
  24.5499886  21.6875049  53.4354901  36.1026787  16.1471072  42.9102687
  36.8062637  16.3521075  43.5260343  35.3789436  16.7147834  43.1751771
  36.9324597  11.8980934  49.0304957  36.8759799  12.3549485  48.1912590
  37.4852940  11.1371618  48.8527800  28.1236950  21.8603466  54.1144554
  28.0069334  22.8048898  54.0123245  27.3029396  21.5577027  54.5030354
  38.0113485  16.5853602  44.9601147  38.8459089  16.1534800  44.7778622
  37.8497828  16.4135615  45.8878042  37.6659377  13.0885715  46.3257486
  37.6108181  12.9229986  45.3845931  37.0405432  13.7961748  46.4819676
  30.9755502   2.5893824  45.9042805  30.9634172   3.5335664  46.0611076
  31.8678924   2.4063969  45.6102266  29.1491464  22.5131728  57.3300483
  30.0518711  22.5455338  57.6466978  28.9228834  21.5832179  57.3446819
  30.9045066  21.2662714  53.9910562  29.9540697  21.2664576  53.8774934
  31.2077552  20.5195449  53.4746596  39.3074282  28.9086157  50.9814740
  38.7439147  28.8176094  50.2131027  39.1926677  28.0886062  51.4617232
  44.8873840  32.5757125  46.2929204  44.2361820  33.1611205  45.9063218
  45.6818203  33.1063320  46.3524242  38.8129468  29.6646262  46.6916339
  39.5860344  29.1175249  46.5529215  39.1654866  30.5290511  46.9030800
  41.1495745  25.8238928  44.3234789  41.4021266  25.3020450  43.5618252
  40.2120304  25.6605074  44.4261472  46.1939028  24.8274707  52.1309532
  46.9802117  24.4094130  51.7799949  46.4577733  25.7320799  52.2991180
  46.3649106  30.2647557  46.8298189  45.7294939  30.3382183  47.5419093
  46.0346512  30.8541156  46.1517268  40.8692034  27.7267034  46.5259164
  40.7528292  27.0511938  47.1940248  40.9794294  27.2399408  45.7091317
  43.2123575  27.1877181  50.2305853  42.8481782  26.6607802  50.9418774
  44.0690691  26.7975650  50.0572338  42.8529062  22.2167081  45.2267201
  43.0203464  23.0847317  45.5937672  42.6626231  22.3794363  44.3028491
  39.0616877  27.1297857  52.9269736  38.1367373  26.9974071  53.1347428
  39.3101290  27.9092076  53.4239679  42.8318283  24.6724738  46.2113868
  42.7117908  25.1181789  47.0499349  42.1370871  25.0210056  45.6527406
  36.4225688  26.7731130  53.7613525  36.5518069  27.0265609  54.6752937
  35.7423139  27.3658838  53.4418180  48.5303349  25.1446212  47.0394202
  49.4421205  25.3773598  46.8641900  48.0212996  25.7283256  46.4769281
  42.6900893  29.8646438  51.6957869  43.1539239  30.1434141  50.9062491
  42.4257691  28.9629883  51.5130960  41.6269779  25.9869591  48.5047434
  42.3293823  26.4390634  48.9721360  41.2950408  25.3453409  49.1327327
  35.3695113  24.2453143  53.8064568  34.5794167  24.5010672  53.3304678
  35.8606361  25.0601481  53.9116608  37.3209859  24.6097723  50.7648044
  36.5241022  24.7216417  51.2831540  37.0935451  24.9484375  49.8988935
  33.6532816  24.4983634  56.2379558  33.9040855  25.3830644  56.5037134
  34.1892365  24.3188235  55.4654650  42.8663544  32.8010533  48.5809539
  42.7309219  33.6462069  49.0094387  43.4073356  33.0029811  47.8175473
  36.3192941  30.3185971  49.1537464  36.8317462  31.1129222  49.3043029
  36.9715654  29.6212262  49.0871066  38.1287826  33.4351728  51.2360217
  38.3054454  34.3569692  51.0481201  38.9244660  33.1210147  51.6654597
  34.2841858  28.6474626  49.9297035  35.1217080  29.0571634  49.7130743
  34.4620126  27.7074068  49.8997229  46.1806290  26.3149706  45.6180868
  45.6652914  27.0854311  45.8569255  45.9083599  25.6414842  46.2413929
  43.7653401  21.1599407  50.6766106  42.9094998  20.7706257  50.4971745
  44.1780353  21.2391368  49.8165892  51.1540564  29.0682061  47.5534041
  50.3770007  28.7293220  47.1089203  51.8332045  29.0734684  46.8789006
  45.9692593  24.1876798  47.4440649  45.6642729  24.5022947  48.2950792
  46.9223035  24.2658218  47.4867982  44.4139025  30.3467022  49.0933603
  43.8860387  29.6119781  48.7806840  43.9126528  31.1241698  48.8473571
  39.1457753  21.0086688  51.4540214  39.7201505  20.7861869  50.7213407
  39.7328735  21.0775382  52.2068816  39.4727340  23.0391149  45.4736100
  38.6364652  23.3765835  45.7945374  39.3332110  22.9040129  44.5363237
  41.4480421  17.8827937  50.1815284  40.7944833  17.5676954  49.5571899
  41.4060895  17.2603677  50.9075107  42.5591625  28.1647232  42.0968576
  41.6518687  27.9336485  42.2959725  43.0562657  27.3684851  42.2842558
  45.4659704  36.8744739  45.0165262  44.7921403  37.1776436  45.6250220
  45.8525526  37.6773819  44.6670719  44.6818161  24.3709870  54.5062932
  43.7640722  24.5924817  54.3484620  45.0978305  24.4456181  53.6474639
  45.4653209  25.7701286  49.6365612  46.2125028  26.2822683  49.3272734
  45.7344798  25.4485339  50.4970005  43.7379859  28.2659827  46.6192566
  42.8291078  27.9818860  46.7165036  43.7674943  28.6858905  45.7595873
  47.9132046  22.8058402  51.6184401  47.1754803  22.2935788  51.9494644
  48.1658819  22.3658784  50.8067678  34.3068029  25.9865341  50.6007768
  34.1092429  25.3934702  49.8758835  33.7514693  25.6817551  51.3183707
  42.2864753  25.8788447  52.7202361  42.3413363  24.9262284  52.6444838
  41.4755955  26.0347886  53.2043660  43.4355947  29.8068570  43.9580645
  42.9975377  29.0904429  43.4986282  44.1766388  30.0344685  43.3965736
  40.2257113  24.4965507  50.4792740  39.4124978  24.7959678  50.8857932
  40.7216107  24.1021196  51.1967223  39.7171188  22.0683863  56.0953975
  40.3570567  21.9272622  55.3976939  38.8848718  21.7818376  55.7192577
  40.4931491  31.3686293  52.2088968  41.2872090  30.8736613  52.0071543
  39.7823184  30.8404156  51.8456673  36.8014255  25.5129375  48.2848720
  35.8711843  25.4513830  48.5018683  36.8971727  24.9905328  47.4885362
  36.7199804  22.0384188  50.8726962  36.9806621  22.9529521  50.7636123
  37.5416976  21.5708630  51.0223575  47.5567174  28.6652952  43.5512702
  46.9396345  27.9399780  43.4545755  47.0883663  29.4262312  43.2079777
  39.3465720  22.8838376  42.6734007  38.4695186  22.7627177  42.3096253
  39.8223473  22.0924455  42.4212895  30.8667860  27.6715536  52.7675514
  31.5538900  27.3577266  52.1796529  30.7115989  28.5756901  52.4942765
  35.6702582  22.5605733  57.1960537  35.5860771  21.9531402  56.4610947
  34.8485289  23.0514751  57.1970034  46.9256077  29.8030983  50.1369156
  45.9912356  29.9232446  49.9673860  47.1032745  28.9003450  49.8729166
  42.4261265  23.1876679  52.2902417  42.0559053  22.6347720  52.9783323
  42.9220358  22.5834813  51.7377417  48.3804859  31.9892124  47.6705342
  48.6564703  31.8748719  48.5799216  47.5109358  31.5909609  47.6317515
  30.4435836  25.7516129  55.0392981  30.4819936  25.2179720  55.8330099
  29.9376129  25.2251335  54.4203958  37.8226599  20.5980670  58.5355523
  37.8867925  21.4595501  58.1232921  37.7593719  19.9854672  57.8027882
  34.0744414  24.4780232  48.1146912  34.3697855  23.5690910  48.0613966
  33.1732450  24.4567971  47.7927915  37.6038661  22.5536228  54.0974461
  36.8825247  23.1672196  53.9581934  38.3931917  23.0893993  54.0191107
  35.8032256  22.1594329  48.2386237  35.4744962  21.2791708  48.0561343
  36.1571626  22.1041998  49.1262627  38.9174079  22.4467299  48.6061715
  39.2570151  22.9753220  47.8840323  39.3646199  22.7847705  49.3820282
  40.9042226  20.9441921  46.8055008  41.6250588  21.3223173  46.3018725
  40.2807530  21.6630797  46.9089986  45.0473349  21.6487070  47.7413340
  45.2636963  22.5311707  47.4402168  44.5667416  21.2573283  47.0118982
  39.7872570  24.6072783  54.3184085  39.6417151  24.9213086  55.2108366
  39.3097774  25.2257683  53.7654983  41.6468953  21.5975331  54.3664974
  41.6330522  20.7016424  54.0297272  42.3641381  21.6045995  55.0003260
  41.0505849  20.4789711  49.6352544  41.1721760  19.5506357  49.8343432
  40.7607891  20.4928397  48.7230860  35.4940868  34.1613452  52.1812297
  36.3198888  33.8617224  51.8010941  35.1434920  33.3921075  52.6302086
  33.6949473  32.0799779  53.1401231  32.8581381  31.6521953  52.9585232
  33.6673118  32.2732222  54.0772022  40.0235908  32.0643844  47.7268432
  40.1724028  32.7479308  47.0735104  40.8302351  32.0448934  48.2417887
  37.7788541  28.0909021  48.7329500  37.5334583  27.1871351  48.9309711
  37.9484455  28.0926172  47.7908978  37.0484188  23.8237379  46.2315662
  36.3553433  23.8981734  45.5755698  36.8035940  23.0597723  46.7537179
  43.5231313  34.5591974  45.1980179  42.9505281  35.1782161  44.7450651
  44.0964107  35.1091336  45.7320101  46.7428573  34.8429124  46.3288761
  47.6759246  34.7774686  46.5321637  46.6551786  35.6785391  45.8703294
  49.3716590  34.1594995  43.2892709  49.2930221  33.8254858  44.1828467
  50.1926257  34.6516763  43.2884181  43.9078112  25.8952787  42.5396231
  44.8537217  25.7658995  42.6084649  43.5292357  25.1567449  43.0165660
  42.0921029  23.8202763  42.4751117  41.1852484  23.5235876  42.5513830
  42.3697010  23.5232581  41.6085403  33.0098969  25.1409127  52.9250163
  32.6901754  24.2874435  52.6324537  32.4632398  25.3557705  53.6808130
  43.7083095  18.3639653  48.6295358  42.8983823  18.0186738  49.0050604
  44.3967512  18.0547197  49.2182970  40.8619814  20.6789699  42.6163096
  41.7238978  21.0044597  42.8758913  41.0470158  19.8921195  42.1036162
  32.8787229  28.7612038  54.8943285  32.1850701  28.3465991  54.3813239
  33.6260220  28.8032575  54.2976704  34.7923972  28.6930292  52.7709300
  34.7694660  28.7917979  51.8191183  35.1024609  29.5395443  53.0926466
  47.7977328  21.7118315  48.8154667  46.9103183  21.9967966  48.5974862
  48.2131317  21.5512079  47.9681944  46.9420542  31.4762990  42.9102687
  47.6456392  31.6812993  43.5260343  46.2183190  32.0439752  43.1751771
  47.7718352  27.2272851  49.0304957  47.7153553  27.6841403  48.1912590
  48.3246694  26.4663536  48.8527800  48.8507239  31.9145519  44.9601147
  49.6852843  31.4826718  44.7778622  48.6891582  31.7427533  45.8878042
  48.5053131  28.4177633  46.3257486  48.4501935  28.2521904  45.3845931
  47.8799187  29.1253666  46.4819676  41.8149257  17.9185742  45.9042805
  41.8027927  18.8627582  46.0611076  42.7072679  17.7355887  45.6102266
  50.1859475  38.2130294  42.6734007  49.3088941  38.0919095  42.3096253
  50.6617228  37.4216372  42.4212895  52.9314784  39.1494681  42.4751117
  52.0246239  38.8527794  42.5513830  53.2090765  38.8524499  41.6085403
  51.7013568  36.0081616  42.6163096  52.5632732  36.3336515  42.8758913
  51.8863912  35.2213112  42.1036162  27.3918251   1.8683979  40.7297508
  27.6314850   2.5002503  41.4076527  26.5487448   1.5172019  41.0162867
  39.3074283   5.9148280  37.7060046  38.7439148   5.8238217  36.9376334
  39.1926678   5.0948184  38.1862539  36.8538715   7.4099471  40.5444267
  37.6460007   7.0690296  40.1290566  37.0935365   7.5194447  41.4646420
  44.8873842   9.5819248  33.0174511  44.2361821  10.1673328  32.6308525
  45.6818204  10.1125442  33.0769549  38.8129469   6.6708385  33.4161645
  39.5860345   6.1237372  33.2774521  39.1654868   7.5352634  33.6276107
  40.6514511   7.9984767  46.6228545  40.3604377   8.9030398  46.5075211
  41.2871496   8.0401295  47.3372614  41.5770718   5.3761616  43.2129904
  42.1734290   5.1517638  42.4986867  41.6345690   4.6346361  43.8155352
  46.3649107   7.2709680  33.5543495  45.7294940   7.3444306  34.2664400
  46.0346513   7.8603278  32.8762575  40.8692035   4.7329157  33.2504470
  40.7528293   4.0574060  33.9185555  40.9794295   4.2461531  32.4336623
  45.6104396   7.6846183  43.6178338  45.3105120   8.5871221  43.5094146
  45.2655456   7.4178366  44.4699491  39.0616878   4.1359979  39.6515043
  38.1367374   4.0036193  39.8592735  39.3101291   4.9154199  40.1484985
  36.4225689   3.7793253  40.4858832  36.5518070   4.0327732  41.3998244
  35.7423140   4.3720961  40.1663487  40.5925176  14.4490503  36.5849306
  40.5149206  15.3998328  36.6637787  39.9886820  14.1036375  37.2424232
  47.1372933   7.1334153  41.1553090  46.5081795   7.2979867  40.4529158
  46.7498595   7.5475762  41.9264054  51.0162165   8.0688591  38.5097454
  50.3313203   8.4487492  37.9594487  51.1006014   8.6783917  39.2429402
  42.6900894   6.8708561  38.4203176  43.1539240   7.1496264  37.6307798
  42.4257693   5.9692005  38.2376266  39.5824976   6.4180042  41.3582939
  40.1526333   6.8467311  40.7200423  40.1733087   6.1362627  42.0567124
  43.1515528   8.1404548  45.4375866  43.2159960   8.6024956  46.2734037
  42.4426451   7.5101913  45.5658175  33.6532817   1.5045756  42.9624865
  33.9040856   2.3892766  43.2282441  34.1892366   1.3250358  42.1899957
  42.8663545   9.8072656  35.3054846  42.7309220  10.6524192  35.7339694
  43.4073358  10.0091933  34.5420780  36.3192943   7.3248094  35.8782771
  36.8317463   8.1191344  36.0288336  36.9715655   6.6274384  35.8116372
  38.1287827  10.4413850  37.9605524  38.3054456  11.3631815  37.7726508
  38.9244661  10.1272269  38.3899904  39.2519143  11.9592024  43.9615866
  39.8026568  11.8309087  43.1892860  38.4130619  12.2586913  43.6110759
  34.2841859   5.6536748  36.6542341  35.1217081   6.0633757  36.4376049
  34.4620127   4.7136190  36.6242535  44.4139026   7.3529144  35.8178910
  43.8860388   6.6181904  35.5052147  43.9126529   8.1303821  35.5718878
  42.5591627   5.1709354  28.8213883  41.6518688   4.9398608  29.0205032
  43.0562659   4.3746974  29.0087864  45.4659706  13.8806862  31.7410569
  44.7921404  14.1838558  32.3495527  45.8525527  14.6835942  31.3916026
  43.7379860   5.2721949  33.3437873  42.8291079   4.9880982  33.4410342
  43.7674944   5.6921028  32.4841180  48.9699128   8.8828539  37.1129040
  48.5161455   8.0419449  37.1694231  48.3393094   9.5189937  37.4503820
  47.4132067  10.7205036  38.0478858  47.7055041  11.2810093  37.3291224
  47.9230687  11.0133597  38.8032018  34.3068030   2.9927463  37.3253075
  34.1092430   2.3996824  36.6004141  33.7514694   2.6879674  38.0429014
  43.4355948   6.8130693  30.6825951  42.9975378   6.0966552  30.2231589
  44.1766389   7.0406808  30.1211043  42.3765692  11.4985387  39.1372312
  42.3341871  11.7246233  38.2080844  43.2928391  11.2648761  39.2858113
  40.4931493   8.3748416  38.9334274  41.2872091   7.8798736  38.7316849
  39.7823185   7.8466279  38.5701980  45.3126337  10.7566511  43.2846642
  45.3663359  11.3257447  44.0524358  44.4441119  10.9268396  42.9200679
  43.0702769   8.9477438  42.6132111  42.9313854   8.5796222  43.4858050
  42.2817365   9.4625077  42.4416069  43.6650921  14.0486534  33.9557648
  43.8402676  13.5774577  34.7703271  42.9783709  14.6752300  34.1838909
  44.6207984   8.3259040  40.0020949  44.2857816   8.2859810  40.8978599
  44.1211930   7.6603756  39.5291359  38.5952228   3.7326670  45.5273530
  38.4572026   3.0006909  46.1285069  39.5057151   3.6435570  45.2457718
  38.2312006  17.1975897  40.7297508  38.4708604  17.8294421  41.4076527
  37.3881202  16.8463937  41.0162867  30.8667862   4.6777659  39.4920820
  31.5538901   4.3639389  38.9041836  30.7115990   5.5819023  39.2188072
  42.7439868  13.0055019  43.1339012  42.6710039  13.8109991  43.6458317
  42.3017261  13.2046985  42.3087034  42.5329647  12.2426789  36.6441834
  41.7497169  12.7848470  36.7380058  43.2322393  12.7600769  37.0436075
  45.2038551  12.9041853  45.2897171  45.9166524  13.5389318  45.2173072
  44.7128580  13.0005719  44.4737173  46.9256078   6.8093106  36.8614462
  45.9912357   6.9294568  36.6919167  47.1032747   5.9065573  36.5974472
  40.2550465  10.6536297  46.1102742  40.9559924  11.2872780  46.2632136
  39.7845580  10.9951028  45.3498381  48.3804861   8.9954247  34.3950649
  48.6564705   8.8810841  35.3044523  47.5109359   8.5971731  34.3562822
  45.0158925  13.2440597  38.0383462  45.1981319  12.4262253  38.5011215
  45.8391911  13.4608290  37.6008352  45.3501090  12.1708783  35.2998511
  45.8788857  11.6601237  34.6868673  45.6129310  11.8551313  36.1644044
  35.8518183  10.1872652  43.0433844  36.4371620   9.4416340  43.1761748
  35.6543021  10.4976609  43.9270508  38.7056838  13.2223899  38.0596287
  38.0367213  13.7070027  37.5760327  38.5669708  13.4693120  38.9739665
  30.4435838   2.7578252  41.7638287  30.4819937   2.2241843  42.5575406
  29.9376130   2.2313458  41.1449265  42.8462107  15.2567643  44.6578945
  43.3980415  15.4199264  45.4228030  43.1868300  15.8472081  43.9858970
  45.9830494  13.2049618  41.6442627  45.8581633  12.4039358  41.1353573
  46.6409585  13.6995812  41.1556597  48.0465402  11.0058638  43.2722177
  47.0995738  10.8863990  43.2000504  48.3948176  10.1181136  43.3548439
  45.0511836  10.8011355  39.4726530  44.9036798   9.8728062  39.6534100
  45.8765329  10.8231445  38.9883605  48.6545958  11.6239913  40.5591402
  49.5792505  11.4182775  40.4215853  48.4861261  11.3756314  41.4680744
  48.4441274  12.1425581  35.9153494  48.6178151  11.5772003  35.1627346
  48.9370165  12.9426476  35.7332984  34.2618234   4.1540250  43.9817053
  33.7171702   4.9300058  44.1137327  35.1397583   4.5011054  43.8236174
  49.4316446  11.4592345  33.0150392  50.1267351  12.0799038  33.2337707
  49.7739596  10.6087696  33.2902770  35.0484255   3.2810146  46.8747209
  34.3065991   3.4292781  47.4611840  34.7277000   3.5418412  46.0113959
  51.3307869   8.9092051  34.5437723  51.8559193   9.2479323  33.8187043
  51.2430222   7.9739066  34.3600857  42.9927918  12.8226124  46.6727599
  43.3015045  12.5775271  47.5450299  43.7903400  13.0272763  46.1846470
  43.0148530  14.9764034  38.9032976  42.5753520  14.4840413  39.5965833
  43.7656647  14.4337002  38.6625051  35.4940869  11.1675575  38.9057604
  36.3198889  10.8679347  38.5256248  35.1434921  10.3983197  39.3547393
  40.4622402  10.5202043  40.9755278  39.8402412   9.8572748  40.6757505
  41.1327269  10.5463175  40.2928925  33.6949474   9.0861901  39.8646538
  32.8581382   8.6584076  39.6830539  33.6673120   9.2794345  40.8017329
  40.0235909   9.0705966  34.4513738  40.1724030   9.7541431  33.7980411
  40.8302353   9.0511056  34.9663194  37.7788542   5.0971144  35.4574807
  37.5334584   4.1933474  35.6555017  37.9484457   5.0988294  34.5154285
  43.5231315  11.5654097  31.9225486  42.9505282  12.1844284  31.4695957
  44.0964108  12.1153459  32.4565408  46.7428574  11.8491247  33.0534068
  47.6759248  11.7836809  33.2566943  46.6551787  12.6847514  32.5948601
  49.3716591  11.1657117  30.0138015  49.2930223  10.8316981  30.9073773
  50.1926258  11.6578885  30.0129488  33.0098971   2.1471249  39.6495470
  32.6901755   1.2936558  39.3569844  32.4632399   2.3619828  40.4053437
  36.7878878   4.8633690  43.3664976  37.0064888   5.7950798  43.3853010
  37.2004652   4.5041665  44.1519780  32.8787231   5.7674161  41.6188591
  32.1850702   5.3528114  41.1058546  33.6260222   5.8094697  41.0222010
  34.7923973   5.6992415  39.4954606  34.7694661   5.7980102  38.5436489
  35.1024610   6.5457565  39.8171772  37.4511351   7.7568570  43.6101221
  38.4054605   7.7252512  43.5431152  37.2523875   7.2959193  44.4251447
  38.0410733   6.3269686  46.1772018  38.8603622   6.8213764  46.2006856
  38.3147541   5.4101654  46.1489586  35.8061580  13.2988189  40.6271418
  35.6716048  12.5388590  40.0609417  35.3893642  14.0229089  40.1600207
  46.9420543   8.4825113  29.6347994  47.6456393   8.6875115  30.2505649
  46.2183192   9.0501875  29.8997077  38.9630706  14.1957506  40.8389861
  38.8463090  15.1402939  40.7368551  38.1423152  13.8931068  41.2275660
  48.8507240   8.9207642  31.6846454  49.6852844   8.4888840  31.5023929
  48.6891583   8.7489656  32.6123348  39.9885220  14.8485768  44.0545790
  40.8912467  14.8809378  44.3712284  39.7622590  13.9186219  44.0692125
  41.7438822  13.6016755  40.7155868  40.7934453  13.6018616  40.6020240
  42.0471308  12.8549489  40.1991903  50.1468037  21.2440198  37.7060046
  49.5832903  21.1530134  36.9376334  50.0320432  20.4240102  38.1862539
  47.6932469  22.7391389  40.5444267  48.4853761  22.3982214  40.1290566
  47.9329120  22.8486364  41.4646420  49.6523223  22.0000302  33.4161645
  50.4254099  21.4529289  33.2774521  50.0048622  22.8644552  33.6276107
  51.4908266  23.3276685  46.6228545  51.1998132  24.2322316  46.5075211
  52.1265250  23.3693212  47.3372614  52.4164473  20.7053533  43.2129904
  53.0128045  20.4809556  42.4986867  52.4739444  19.9638279  43.8155352
  51.9889501  18.1592969  31.0480095  52.2415022  17.6374490  30.2863558
  51.0514060  17.9959114  31.1506779  51.7085790  20.0621074  33.2504470
  51.5922048  19.3865978  33.9185555  51.8188050  19.5753448  32.4336623
  53.6922818  14.5521121  31.9512508  53.8597220  15.4201358  32.3182979
  53.5019987  14.7148403  31.0273797  49.9010632  19.4651897  39.6515043
  48.9761129  19.3328111  39.8592735  50.1495046  20.2446116  40.1484985
  53.6712039  17.0078779  32.9359175  53.5511664  17.4535830  33.7744655
  52.9764627  17.3564096  32.3772713  47.2619443  19.1085171  40.4858832
  47.3911825  19.3619649  41.3998244  46.5816895  19.7012879  40.1663487
  51.4318931  29.7782421  36.5849306  51.3542960  30.7290246  36.6637787
  50.8280574  29.4328293  37.2424232  53.5294649  22.2000478  38.4203176
  53.9932995  22.4788181  37.6307798  53.2651447  21.2983923  38.2376266
  50.4218730  21.7471960  41.3582939  50.9920087  22.1759228  40.7200423
  51.0126842  21.4654545  42.0567124  52.4663535  18.3223631  35.2292741
  53.1687578  18.7744675  35.6966667  52.1344164  17.6807450  35.8572634
  46.2088869  16.5807184  40.5309874  45.4187923  16.8364712  40.0549985
  46.7000116  17.3955521  40.6361915  48.1603614  16.9451763  37.4893351
  47.3634778  17.0570457  38.0076847  47.9329207  17.2838415  36.6234241
  53.9909282  23.4696466  45.4375866  54.0553715  23.9316873  46.2734037
  53.2820206  22.8393831  45.5658175  44.4926572  16.8337674  42.9624865
  44.7434610  17.7184684  43.2282441  45.0286120  16.6542276  42.1899957
  53.7057300  25.1364573  35.3054846  53.5702974  25.9816109  35.7339694
  54.2467112  25.3383851  34.5420780  47.1586697  22.6540012  35.8782771
  47.6711218  23.4483262  36.0288336  47.8109410  21.9566302  35.8116372
  48.9681582  25.7705768  37.9605524  49.1448210  26.6923732  37.7726508
  49.7638415  25.4564187  38.3899904  50.0912897  27.2883942  43.9615866
  50.6420322  27.1601005  43.1892860  49.2524373  27.5878831  43.6110759
  45.1235614  20.9828666  36.6542341  45.9610836  21.3925674  36.4376049
  45.3013882  20.0428108  36.6242535  49.9851509  13.3440728  38.1785521
  50.5595260  13.1215910  37.4458714  50.5722491  13.4129423  38.9314122
  50.3121096  15.3745189  32.1981406  49.4758408  15.7119876  32.5190681
  50.1725865  15.2394169  31.2608543  52.2874176  10.2181977  36.9060591
  51.6338589   9.9030994  36.2817205  52.2454650   9.5957718  37.6320413
  53.3985381  20.5001272  28.8213883  52.4912443  20.2690526  29.0205032
  53.8956413  19.7038891  29.0087864  45.1461785  18.3219381  37.3253075
  44.9486185  17.7288742  36.6004141  44.5908449  18.0171591  38.0429014
  53.1258509  18.2142488  39.4447668  53.1807118  17.2616324  39.3690145
  52.3149711  18.3701927  39.9288966  51.0650869  16.8319547  37.2038047
  50.2518734  17.1313718  37.6103239  51.5609863  16.4375236  37.9212529
  53.2159446  26.8277304  39.1372312  53.1735625  27.0538151  38.2080844
  54.1322145  26.5940679  39.2858113  50.5564943  14.4037903  42.8199282
  51.1964323  14.2626662  42.1222245  49.7242474  14.1172416  42.4437884
  51.3325247  23.7040333  38.9334274  52.1265846  23.2090653  38.7316849
  50.6216940  23.1758196  38.5701980  47.6408011  17.8483415  35.0094027
  46.7105599  17.7867871  35.2263989  47.7365483  17.3259368  34.2130668
  47.5593560  14.3738228  37.5972269  47.8200377  15.2883561  37.4881429
  48.3810732  13.9062670  37.7468882  49.0318485  15.7875985  44.7671093
  49.7041538  15.5793347  44.1183742  48.2048272  15.5898071  44.3276326
  53.9096523  24.2769355  42.6132111  53.7707609  23.9088140  43.4858050
  53.1211119  24.7916995  42.4416069  49.4345982  19.0618588  45.5273530
  49.2965780  18.3298827  46.1285069  50.3450906  18.9727488  45.2457718
  52.0628283  18.7738547  45.0157210  52.7727901  18.1331740  44.9743828
  52.0197591  19.0251442  45.9383391  49.0705760  32.5267815  40.7297508
  49.3102359  33.1586339  41.4076527  48.2274957  32.1755855  41.0162867
  50.1859476  15.2192417  29.3979313  49.3088942  15.0981217  29.0341560
  50.6617229  14.4278495  29.1458202  41.7061616  20.0069576  39.4920820
  42.3932656  19.6931306  38.9041836  41.5509745  20.9110941  39.2188072
  46.5096338  14.8959773  43.9205844  46.4254527  14.2885442  43.1856254
  45.6879045  15.3868791  43.9215340  53.5833622  28.3346937  43.1339012
  53.5103794  29.1401908  43.6458317  53.1411015  28.5338903  42.3087034
  53.3723402  27.5718707  36.6441834  52.5890924  28.1140387  36.7380058
  54.0716147  28.0892687  37.0436075  53.2655021  15.5230719  39.0147724
  52.8952808  14.9701760  39.7028629  53.7614113  14.9188853  38.4622724
  51.0944219  25.9828214  46.1102742  51.7953679  26.6164697  46.2632136
  50.6239334  26.3242946  45.3498381  46.6911937  25.5164570  43.0433844
  47.2765374  24.7708257  43.1761748  46.4936776  25.8268526  43.9270508
  49.5450593  28.5515817  38.0596287  48.8760968  29.0361945  37.5760327
  49.4063462  28.7985037  38.9739665  41.2829592  18.0870170  41.7638287
  41.3213692  17.5533760  42.5575406  40.7769885  17.5605375  41.1449265
  53.6855861  30.5859560  44.6578945  54.2374169  30.7491182  45.4228030
  54.0262055  31.1763998  43.9858970  48.6620354  12.9334710  45.2600830
  48.7261681  13.7949541  44.8478227  48.5987475  12.3208712  44.5273188
  44.9138170  16.8134272  34.8392219  45.2091611  15.9044950  34.7859273
  44.0126206  16.7922011  34.5173221  48.4432417  14.8890268  40.8219767
  47.7219003  15.5026236  40.6827241  49.2325673  15.4248033  40.7436413
  46.6426011  14.4948370  34.9631544  46.3138717  13.6145748  34.7806650
  46.9965382  14.4396038  35.8507933  49.7567834  14.7821339  35.3307022
  50.0963907  15.3107261  34.6085630  50.2039955  15.1201745  36.1065588
  51.7435982  13.2795961  33.5300314  52.4644344  13.6577214  33.0264031
  51.1201286  13.9984838  33.6335292  50.6266326  16.9426823  41.0429391
  50.4810907  17.2567126  41.9353673  50.1491530  17.5611723  40.4900290
  52.4862709  13.9329371  41.0910281  52.4724278  13.0370464  40.7542579
  53.2035137  13.9400035  41.7248567  45.1011988  19.4832168  43.9817053
  44.5565456  20.2591975  44.1137327  45.9791338  19.8302972  43.8236174
  51.8899605  12.8143751  36.3597851  52.0115516  11.8860398  36.5588739
  51.6001647  12.8282437  35.4476166  45.8878010  18.6102064  46.8747209
  45.1459746  18.7584699  47.4611840  45.5670754  18.8710329  46.0113959
  46.3334624  26.4967492  38.9057604  47.1592644  26.1971264  38.5256248
  45.9828676  25.7275115  39.3547393  51.3016157  25.8493961  40.9755278
  50.6796166  25.1864666  40.6757505  51.9721024  25.8755093  40.2928925
  44.5343229  24.4153819  39.8646538  43.6975137  23.9875993  39.6830539
  44.5066874  24.6086262  40.8017329  50.8629664  24.3997884  34.4513738
  51.0117784  25.0833348  33.7980411  51.6696107  24.3802974  34.9663194
  48.6182297  20.4263062  35.4574807  48.3728339  19.5225392  35.6555017
  48.7878211  20.4280212  34.5154285  47.8877944  16.1591419  32.9560969
  47.1947189  16.2335774  32.3001005  47.6429696  15.3951763  33.4782485
  52.9314785  16.1556804  29.1996423  52.0246240  15.8589916  29.2759137
  53.2090766  15.8586622  28.3330710  43.8492725  17.4763167  39.6495470
  43.5295510  16.6228475  39.3569844  43.3026153  17.6911745  40.4053437
  47.6272633  20.1925608  43.3664976  47.8458643  21.1242716  43.3853010
  48.0398407  19.8333582  44.1519780  51.7013569  13.0143739  29.3408403
  52.5632733  13.3398637  29.6004220  51.8863914  12.2275235  28.8281468
  43.7180985  21.0966079  41.6188591  43.0244457  20.6820031  41.1058546
  44.4653976  21.1386615  41.0222010  45.6317728  21.0284332  39.4954606
  45.6088416  21.1272020  38.5436489  45.9418364  21.8749483  39.8171772
  48.2905106  23.0860487  43.6101221  49.2448359  23.0544430  43.5431152
  48.0917629  22.6251111  44.4251447  48.8804488  21.6561603  46.1772018
  49.6997377  22.1505682  46.2006856  49.1541295  20.7393572  46.1489586
  46.6455334  28.6280107  40.6271418  46.5109802  27.8680508  40.0609417
  46.2287397  29.3521007  40.1600207  49.8024460  29.5249424  40.8389861
  49.6856844  30.4694856  40.7368551  48.9816907  29.2222985  41.2275660
  44.1339402  15.9899737  46.8764215  44.7798266  15.4798691  47.3651440
  43.9256553  16.7268419  47.4507641  52.6543012  10.2539782  32.6288112
  52.6421682  11.1981622  32.7856382  53.5466434  10.0709927  32.3347573
  50.8278974  30.1777686  44.0545790  51.7306221  30.2101296  44.3712284
  50.6016344  29.2478137  44.0692125  52.5832576  28.9308672  40.7155868
  51.6328207  28.9310534  40.6020240  52.8865063  28.1841407  40.1991903
  52.5455371  35.3361494  39.4920820  53.2326410  35.0223224  38.9041836
  52.3903499  36.2402859  39.2188072  52.1223347  33.4162087  41.7638287
  52.1607446  32.8825678  42.5575406  51.6163639  32.8897293  41.1449265
  49.0705762   9.5329937  27.4542815  49.3102360  10.1648461  28.1321833
  48.2274958   9.1817977  27.7408174  52.5455372  12.3423617  26.2166127
  53.2326412  12.0285347  25.6287142  52.3903500  13.2464981  25.9433378
  52.1223348  10.4224210  28.4883594  52.1607447   9.8887801  29.2820712
  51.6163641   9.8959416  27.8694571   2.1084686  21.5452821  45.0165259
   1.4346385  21.8484518  45.6250217   2.4950508  22.3481902  44.6670716
   6.0141572  18.8303077  43.2892706   5.9355203  18.4962941  44.1828464
   6.8351239  19.3224845  43.2884178   3.5845524  16.1471072  42.9102684
   4.2881374  16.3521075  43.5260340   2.8608172  16.7147834  43.1751768
   6.7893018  28.9086157  50.9814736   6.2257883  28.8176094  50.2131024
   6.6745413  28.0886062  51.4617229  12.3692577  32.5757125  46.2929201
  11.7180557  33.1611205  45.9063215  13.1636940  33.1063320  46.3524239
   6.2948204  29.6646262  46.6916336   7.0679080  29.1175249  46.5529212
   6.6473603  30.5290511  46.9030797   8.6314482  25.8238928  44.3234786
   8.8840003  25.3020450  43.5618249   7.6939041  25.6605074  44.4261469
  13.6757765  24.8274707  52.1309529  14.4620854  24.4094130  51.7799946
  13.9396469  25.7320799  52.2991177  13.8467842  30.2647557  46.8298186
  13.2113675  30.3382183  47.5419090  13.5165248  30.8541156  46.1517265
  19.0766192  24.7649940  53.0342507  19.8091364  24.1949157  53.2680337
  18.3205548  24.3771540  53.4749013   8.3510771  27.7267034  46.5259161
   8.2347029  27.0511938  47.1940245   8.4613031  27.2399408  45.7091314
  10.6942312  27.1877181  50.2305850  10.3300519  26.6607802  50.9418771
  11.5509427  26.7975650  50.0572335  10.3347799  22.2167081  45.2267198
  10.5022201  23.0847317  45.5937669  10.1444968  22.3794363  44.3028488
  10.3137019  24.6724738  46.2113865  10.1936645  25.1181789  47.0499345
   9.6189608  25.0210056  45.6527403  16.0122086  25.1446212  47.0394199
  16.9239942  25.3773598  46.8641897  15.5031733  25.7283256  46.4769278
  14.6191668  30.1272030  54.4307781  13.9900530  30.2917744  53.7283849
  14.2317330  30.5413640  55.2018745  18.4980900  31.0626468  51.7852144
  17.8131938  31.4425369  51.2349178  18.5824749  31.6721795  52.5184092
  10.1719630  29.8646438  51.6957866  10.6357975  30.1434141  50.9062488
   9.9076428  28.9629883  51.5130956   9.1088516  25.9869591  48.5047431
   9.8112559  26.4390634  48.9721357   8.7769144  25.3453409  49.1327324
  16.8677659  31.5858382  56.5569845  17.6895103  31.1838570  56.2752527
  16.8640062  31.4826617  57.5085961  24.9583652  27.9297131  52.9054817
  24.2047361  27.3604529  52.7498821  25.0931194  27.8959795  53.8525451
  10.3482280  32.8010533  48.5809536  10.2127955  33.6462069  49.0094384
  10.8892093  33.0029811  47.8175470   3.8011678  30.3185971  49.1537461
   4.3136198  31.1129222  49.3043026   4.4534391  29.6212262  49.0871063
  13.6625027  26.3149706  45.6180865  13.1471650  27.0854311  45.8569252
  13.3902335  25.6414842  46.2413926  18.6359301  29.0682061  47.5534038
  17.8588744  28.7293220  47.1089200  19.3150782  29.0734684  46.8789003
  13.4511330  24.1876798  47.4440646  13.1461465  24.5022947  48.2950789
  14.4041772  24.2658218  47.4867979  11.8957762  30.3467022  49.0933600
  11.3679123  29.6119781  48.7806837  11.3945264  31.1241698  48.8473568
  16.8750608  28.5416042  54.2100646  16.2174282  29.2315303  54.2980775
  17.6791007  28.9312474  54.5534633  15.6856067  26.8960415  52.2604588
  16.1987948  27.5290407  52.7626298  16.3357290  26.2961610  51.8947948
   6.9546076  23.0391149  45.4736097   6.1183389  23.3765835  45.7945371
   6.8150846  22.9040129  44.5363234  10.0410362  28.1647232  42.0968573
   9.1337424  27.9336485  42.2959722  10.5381394  27.3684851  42.2842554
  12.9478441  36.8744739  45.0165259  12.2740140  37.1776436  45.6250217
  13.3344263  37.6773819  44.6670716  12.9471945  25.7701286  49.6365609
  13.6943764  26.2822683  49.3272731  13.2163535  25.4485339  50.4970002
  11.2198595  28.2659827  46.6192563  10.3109815  27.9818860  46.7165033
  11.2493679  28.6858905  45.7595870  16.4517863  31.8766416  50.3883731
  15.9980190  31.0357326  50.4448921  15.8211829  32.5127815  50.7258511
  15.3950782  22.8058402  51.6184398  14.6573539  22.2935788  51.9494641
  15.6477556  22.3658784  50.8067675  14.8950802  33.7142913  51.3233549
  15.1873776  34.2747970  50.6045914  15.4049423  34.0071474  52.0786708
  10.9174683  29.8068570  43.9580642  10.4794113  29.0904429  43.4986279
  11.6585124  30.0344685  43.3965733   9.8584427  34.4923264  52.4127002
   9.8160606  34.7184110  51.4835534  10.7747126  34.2586639  52.5612803
  19.0347798  28.0825767  50.0156960  18.8965697  28.2727363  49.0878149
  18.6784017  28.8445150  50.4725011  19.0617178  30.1502294  55.0268232
  19.4953684  30.0577584  55.8751286  19.7748758  30.1259795  54.3888248
   7.9750228  31.3686293  52.2088965   8.7690826  30.8736613  52.0071540
   7.2641920  30.8404156  51.8456670   4.2832991  25.5129375  48.2848717
   3.3530580  25.4513830  48.5018679   4.3790463  24.9905328  47.4885359
  11.1469656  37.0424411  47.2312338  11.3221412  36.5712455  48.0457961
  10.4602444  37.6690178  47.4593599  12.1026719  31.3196918  53.2775640
  11.7676552  31.2797688  54.1733289  11.6030665  30.6541634  52.8046050
  15.0385911  28.6652952  43.5512699  14.4215081  27.9399780  43.4545752
  14.5702399  29.4262312  43.2079773   6.8284457  22.8838376  42.6734003
   5.9513923  22.7627177  42.3096250   7.3042210  22.0924455  42.4212892
  10.0148383  35.2364667  49.9196524   9.2315905  35.7786347  50.0134748
  10.7141128  35.7538646  50.3190765  21.1774790  26.7499662  54.2049021
  21.1664666  27.6324377  53.8342954  20.3092170  26.3971213  54.0103558
  14.4074814  29.8030983  50.1369153  13.4731092  29.9232446  49.9673857
  14.5851482  28.9003450  49.8729163  17.7947365  25.6448303  50.6719187
  18.2607817  26.4776294  50.5979490  18.2454865  25.1793284  51.3764445
  15.8623596  31.9892124  47.6705339  16.1383440  31.8748719  48.5799213
  14.9928095  31.5909609  47.6317512  12.4977660  36.2378475  51.3138153
  12.6800055  35.4200131  51.7765905  13.3210646  36.4546167  50.8763043
  12.8319825  35.1646660  48.5753201  13.3607592  34.6539115  47.9623363
  13.0948045  34.8489190  49.4398734  15.5284138  33.9996516  56.5476868
  14.5814473  33.8801867  56.4755194  15.8766911  33.1119014  56.6303129
  12.5330571  33.7949232  52.7481220  12.3855533  32.8665939  52.9288790
  13.3584064  33.8169323  52.2638295  16.1364693  34.6177791  53.8346093
  17.0611240  34.4120652  53.6970544  15.9679996  34.3694192  54.7435434
   8.3860962  20.9441921  46.8055005   9.1069325  21.3223173  46.3018722
   7.7626267  21.6630797  46.9089983  12.5292085  21.6487070  47.7413337
  12.7455700  22.5311707  47.4402165  12.0486152  21.2573283  47.0118979
  15.9260009  35.1363458  49.1908184  16.0996887  34.5709881  48.4382036
  16.4188900  35.9364353  49.0087674  21.7799400  27.8999881  50.8098484
  22.2230546  27.1507206  50.4117607  20.9025910  27.8910017  50.4272216
  16.9135182  34.4530223  46.2905082  17.6086086  35.0736915  46.5092397
  17.2558332  33.6025574  46.5657460  18.8126605  31.9029928  47.8192413
  19.3377929  32.2417201  47.0941733  18.7248957  30.9676943  47.6355548
   7.5054644  32.0643844  47.7268428   7.6542765  32.7479308  47.0735101
   8.3121088  32.0448934  48.2417884  21.3232265  29.3705119  53.2020931
  22.1579156  29.8094923  53.3658492  21.4591394  28.8943773  52.3829177
   5.2607277  28.0909021  48.7329497   5.0153319  27.1871351  48.9309707
   5.4303192  28.0926172  47.7908975   4.5302925  23.8237379  46.2315659
   3.8372170  23.8981734  45.5755695   4.2854677  23.0597723  46.7537176
  11.0050050  34.5591974  45.1980176  10.4324017  35.1782161  44.7450648
  11.5782844  35.1091336  45.7320098  14.2247310  34.8429124  46.3288758
  15.1577983  34.7774686  46.5321634  14.1370523  35.6785391  45.8703291
  16.8535326  34.1594995  43.2892706  16.7748958  33.8254858  44.1828464
  17.6744993  34.6516763  43.2884178  11.3896848  25.8952787  42.5396228
  12.3355953  25.7658995  42.6084646  11.0111093  25.1567449  43.0165657
  25.3690067  28.0872741  55.6375061  26.0993456  27.8258029  56.1982764
  24.7597013  27.3501463  55.6777129  23.4505365  26.2280603  56.2349512
  22.7238528  26.0936568  55.6266004  23.0352651  26.5357432  57.0406230
   9.5739766  23.8202763  42.4751114   8.6671221  23.5235876  42.5513827
   9.8515747  23.5232581  41.6085400   8.3438550  20.6789699  42.6163093
   9.2057714  21.0044597  42.8758910   8.5288894  19.8921195  42.1036159
  16.4971187  19.5518225  49.7598316  15.9169856  20.2103029  49.3776368
  16.2307119  18.7295570  49.3485733  15.2796065  21.7118315  48.8154664
  14.3921920  21.9967966  48.5974859  15.6950054  21.5512079  47.9681941
  18.6310601  21.7364836  52.5309003  19.4070991  22.2261289  52.8033620
  17.9058735  22.1622891  52.9880873  21.0683160  22.4492456  53.5882944
  21.6627650  22.2088192  52.8776252  21.1409743  21.7299586  54.2156480
  14.4239278  31.4762990  42.9102684  15.1275128  31.6812993  43.5260340
  13.7001927  32.0439752  43.1751768  15.2537088  27.2272851  49.0304954
  15.1972290  27.6841403  48.1912587  15.8065431  26.4663536  48.8527797
  19.0641894  23.0162583  49.8555074  18.8078829  22.6159219  50.6863281
  18.4394762  23.7306377  49.7305213  23.3754232  25.7558656  52.3626365
  22.8153790  25.8251846  53.1357927  22.7697736  25.5799641  51.6425861
  16.3325976  31.9145519  44.9601144  17.1671580  31.4826718  44.7778619
  16.1710319  31.7427533  45.8878039  15.9871868  28.4177633  46.3257483
  15.9320672  28.2521904  45.3845928  15.3617923  29.1253666  46.4819673
   9.2967993  17.9185742  45.9042802   9.2846663  18.8627582  46.0611073
  10.1891415  17.7355887  45.6102263  17.6286773  44.2378075  50.9814736
  17.0651638  44.1468012  50.2131024  17.5139168  43.4177979  51.4617229
  23.2086331  47.9049043  46.2929201  22.5574311  48.4903123  45.9063215
  24.0030694  48.4355238  46.3524239  17.1341959  44.9938180  46.6916336
  17.9072835  44.4467167  46.5529212  17.4867357  45.8582429  46.9030797
  19.4708236  41.1530846  44.3234786  19.7233757  40.6312367  43.5618249
  18.5332795  40.9896991  44.4261469  24.5151519  40.1566624  52.1309529
  25.3014608  39.7386047  51.7799946  24.7790224  41.0612716  52.2991177
  24.6861597  45.5939475  46.8298186  24.0507430  45.6674101  47.5419090
  24.3559003  46.1833073  46.1517265  19.1904525  43.0558952  46.5259161
  19.0740783  42.3803855  47.1940245  19.3006785  42.5691326  45.7091314
  21.5336066  42.5169099  50.2305850  21.1694273  41.9899720  50.9418771
  22.3903182  42.1267568  50.0572335  21.1741553  37.5458999  45.2267198
  21.3415955  38.4139235  45.5937669  20.9838722  37.7086280  44.3028488
  17.3829368  42.4589774  52.9269733  16.4579864  42.3265989  53.1347425
  17.6313781  43.2383994  53.4239676  21.1530774  40.0016656  46.2113865
  21.0330399  40.4473707  47.0499345  20.4583362  40.3501974  45.6527403
  26.8515840  40.4738129  47.0394199  27.7633696  40.7065516  46.8641897
  26.3425487  41.0575174  46.4769278  24.1951815  36.6496165  55.2884060
  23.3336294  36.9477419  55.5800798  24.2214249  36.8666564  54.3565093
  21.0113384  45.1938356  51.6957866  21.4751730  45.4726059  50.9062488
  20.7470182  44.2921800  51.5130956  19.9482270  41.3161508  48.5047431
  20.6506314  41.7682552  48.9721357  19.6162899  40.6745327  49.1327324
  15.6422350  39.9389640  50.7648041  14.8453513  40.0508334  51.2831537
  15.4147942  40.2776292  49.8988932  21.1876035  48.1302451  48.5809536
  21.0521710  48.9753987  49.0094384  21.7285847  48.3321729  47.8175470
  14.6405432  45.6477889  49.1537461  15.1529953  46.4421139  49.3043026
  15.2928145  44.9504179  49.0871063  24.5368498  31.6533013  57.1108430
  24.1932768  32.5434654  57.0347540  24.9047461  31.4634670  56.2478015
  24.5018781  41.6441624  45.6180865  23.9865405  42.4146229  45.8569252
  24.2296090  40.9706760  46.2413926  22.0865892  36.4891325  50.6766103
  21.2307489  36.0998175  50.4971742  22.4992844  36.5683285  49.8165889
  23.6165039  34.0237668  55.0757663  23.1129834  33.9867803  54.2625468
  23.9095646  34.9330411  55.1354320  19.8607925  34.1076398  54.0823845
  20.7260922  33.9119206  53.7229734  19.9285434  33.8786749  55.0093201
  29.4753055  44.3973979  47.5534038  28.6982498  44.0585138  47.1089200
  30.1544536  44.4026602  46.8789003  24.2905084  39.5168716  47.4440646
  23.9855220  39.8314865  48.2950789  25.2435527  39.5950136  47.4867979
  22.7351516  45.6758939  49.0933600  22.2072878  44.9411699  48.7806837
  22.2339019  46.4533616  48.8473568  17.4670244  36.3378606  51.4540211
  18.0413996  36.1153787  50.7213404  18.0541226  36.4067300  52.2068813
  17.7939831  38.3683067  45.4736097  16.9577143  38.7057753  45.7945371
  17.6544601  38.2332046  44.5363234  19.7692912  33.2119854  50.1815281
  19.1157324  32.8968872  49.5571896  19.7273386  32.5895595  50.9075104
  20.8804116  43.4939150  42.0968573  19.9731178  43.2628403  42.2959722
  21.3775148  42.6976769  42.2842554  23.7872195  52.2036657  45.0165259
  23.1133894  52.5068353  45.6250217  24.1738017  53.0065737  44.6670716
  23.0030652  39.7001788  54.5062928  22.0853213  39.9216735  54.3484617
  23.4190796  39.7748098  53.6474636  23.7865700  41.0993204  49.6365609
  24.5337519  41.6114601  49.3272731  24.0557289  40.7777256  50.4970002
  22.0592350  43.5951744  46.6192563  21.1503569  43.3110777  46.7165033
  22.0887434  44.0150823  45.7595870  26.2344537  38.1350320  51.6184398
  25.4967294  37.6227706  51.9494641  26.4871310  37.6950702  50.8067675
  26.3356164  30.9126572  52.2126167  26.6415041  30.0523935  51.9252082
  27.0608769  31.5044192  52.0125161  20.6077244  41.2080365  52.7202358
  20.6625854  40.2554201  52.6444835  19.7968446  41.3639804  53.2043657
  21.7568438  45.1360488  43.9580642  21.3187868  44.4196347  43.4986279
  22.4978879  45.3636603  43.3965733  18.5469604  39.8257425  50.4792737
  17.7337469  40.1251595  50.8857929  19.0428598  39.4313114  51.1967219
  18.0383679  37.3975780  56.0953972  18.6783058  37.2564539  55.3976935
  17.2061209  37.1110294  55.7192574  18.8143982  46.6978211  52.2088965
  19.6084581  46.2028531  52.0071540  18.1035675  46.1696074  51.8456670
  15.1226746  40.8421292  48.2848717  14.1924334  40.7805748  48.5018679
  15.2184218  40.3197245  47.4885359  15.0412295  37.3676105  50.8726959
  15.3019112  38.2821439  50.7636119  15.8629467  36.9000548  51.0223572
  25.8779665  43.9944870  43.5512699  25.2608836  43.2691698  43.4545752
  25.4096154  44.7554230  43.2079773  17.6678211  38.2130294  42.6734003
  16.7907677  38.0919095  42.3096250  18.1435964  37.4216372  42.4212892
  24.1638787  36.3751214  52.5630729  24.6607487  35.6221176  52.2431800
  23.3925769  36.4115531  51.9973939  25.2468568  45.1322901  50.1369153
  24.3124847  45.2524364  49.9673857  25.4245236  44.2295368  49.8729163
  20.7473756  38.5168597  52.2902414  20.3771544  37.9639637  52.9783320
  21.2432849  37.9126730  51.7377414  28.6341119  40.9740220  50.6719187
  29.1001572  41.8068212  50.5979490  29.0848620  40.5085202  51.3764445
  26.7017350  47.3184042  47.6705339  26.9777194  47.2040636  48.5799213
  25.8321849  46.9201527  47.6317512  26.6057782  33.3420807  54.7110088
  25.6920862  33.5725034  54.8792295  27.0350884  33.4259251  55.5624121
  12.3956905  39.8072149  48.1146909  12.6910346  38.8982828  48.0613963
  11.4944941  39.7859889  47.7927911  15.9251152  37.8828146  54.0974458
  15.2037738  38.4964114  53.9581931  16.7144408  38.4185911  54.0191104
  14.1244747  37.4886247  48.2386234  13.7957453  36.6083626  48.0561340
  14.4784117  37.4333916  49.1262623  17.2386570  37.7759217  48.6061712
  17.5782642  38.3045138  47.8840320  17.6858690  38.1139623  49.3820278
  20.5846482  33.2445580  56.5092103  21.4072552  32.7706058  56.3870993
  20.8284546  34.0236064  57.0090789  19.2254717  36.2733838  46.8055005
  19.9463079  36.6515091  46.3018722  18.6020021  36.9922715  46.9089983
  23.3685840  36.9778987  47.7413337  23.5849454  37.8603625  47.4402165
  22.8879907  36.5865201  47.0118979  18.1085061  39.9364701  54.3184082
  17.9629642  40.2505004  55.2108363  17.6310265  40.5549601  53.7654980
  19.9681444  36.9267249  54.3664971  19.9543013  36.0308342  54.0297269
  20.6853872  36.9337912  55.0003257  19.3718340  35.8081629  49.6352541
  19.4934251  34.8798275  49.8343429  19.0820382  35.8220315  48.7230857
  22.2409530  33.4936539  52.7719261  22.2631227  33.5575872  51.8171241
  22.6577589  32.6541048  52.9659767  18.3448399  47.3935761  47.7268428
  18.4936519  48.0771226  47.0735101  19.1514842  47.3740852  48.2417884
  16.1001032  43.4200939  48.7329497  15.8547074  42.5163269  48.9309707
  16.2696946  43.4218090  47.7908975  15.3696679  39.1529297  46.2315659
  14.6765924  39.2273652  45.5755695  15.1248431  38.3889640  46.7537176
  24.0410336  30.7124898  53.6355150  24.3212090  30.0448087  54.2615576
  24.8260943  30.9053994  53.1229813  21.8443804  49.8883892  45.1980176
  21.2717772  50.5074079  44.7450648  22.4176598  50.4383254  45.7320098
  25.0641064  50.1721042  46.3288758  25.9971737  50.1066604  46.5321634
  24.9764277  51.0077309  45.8703291  27.6929081  49.4886912  43.2892706
  27.6142712  49.1546776  44.1828464  28.5138748  49.9808680  43.2884178
  22.2290603  41.2244705  42.5396228  23.1749708  41.0950913  42.6084646
  21.8504848  40.4859367  43.0165657  28.2012488  32.8900711  52.5023120
  28.0037309  32.5815799  53.3866452  28.8112193  33.6162350  52.6321050
  20.4133520  39.1494681  42.4751114  19.5064976  38.8527794  42.5513827
  20.6909501  38.8524499  41.6085400  22.0295586  33.6931571  48.6295355
  21.2196314  33.3478656  49.0050601  22.7180003  33.3839115  49.2182966
  23.9586134  32.7709618  50.2519652  24.5117173  33.1905071  50.9109675
  24.1956220  31.8445366  50.2942608  19.1832305  36.0081616  42.6163093
  20.0451469  36.3336515  42.8758910  19.3682649  35.2213112  42.1036159
  27.3364941  34.8810143  49.7598316  26.7563610  35.5394947  49.3776368
  27.0700874  34.0587487  49.3485733  25.7868508  34.2815200  51.9619636
  26.2868286  34.3931735  51.1533955  26.4304116  33.9776253  52.6020445
  26.1189819  37.0410233  48.8154664  25.2315674  37.3259884  48.5974859
  26.5343808  36.8803997  47.9681941  29.4704355  37.0656754  52.5309003
  30.2464745  37.5553207  52.8033620  28.7452490  37.4914808  52.9880873
  25.2633033  46.8054908  42.9102684  25.9668883  47.0104910  43.5260340
  24.5395681  47.3731670  43.1751768  26.0930843  42.5564769  49.0304954
  26.0366044  43.0133320  48.1912587  26.6459185  41.7955454  48.8527797
  29.9035649  38.3454501  49.8555074  29.6472583  37.9451137  50.6863281
  29.2788517  39.0598295  49.7305213  27.1719730  47.2437437  44.9601144
  28.0065334  46.8118635  44.7778619  27.0104073  47.0719451  45.8878039
  26.8265622  43.7469550  46.3257483  26.7714426  43.5813822  45.3845928
  26.2011678  44.4545583  46.4819673  20.1361748  33.2477659  45.9042802
  20.1240418  34.1919499  46.0611073  21.0285170  33.0647805  45.6102263
  23.9513867  29.8420436  50.1588739  23.1846263  29.2878923  50.3045421
  24.3624572  29.9142305  51.0202890  28.5071966  53.5422212  42.6734003
  27.6301432  53.4211012  42.3096250  28.9829719  52.7508290  42.4212892
  31.2527275  54.4786599  42.4751114  30.3458730  54.1819711  42.5513827
  31.5303256  54.1816417  41.6085400  30.0226059  51.3373534  42.6163093
  30.8845223  51.6628432  42.8758910  30.2076403  50.5505030  42.1036159
   6.7893019   5.9148280  37.7060043   6.2257885   5.8238217  36.9376331
   6.6745414   5.0948184  38.1862536  12.3692578   9.5819248  33.0174508
  11.7180558  10.1673328  32.6308522  13.1636941  10.1125442  33.0769545
   6.2948205   6.6708385  33.4161642   7.0679081   6.1237372  33.2774518
   6.6473604   7.5352634  33.6276104  13.6757766   1.8336829  38.8554836
  14.4620855   1.4156252  38.5045253  13.9396470   2.7382921  39.0236484
  13.8467843   7.2709680  33.5543492  13.2113676   7.3444306  34.2664397
  13.5165250   7.8603278  32.8762572  19.0766193   1.7712062  39.7587814
  19.8091365   1.2011279  39.9925644  18.3205549   1.3833663  40.1994320
   8.3510772   4.7329157  33.2504467   8.2347030   4.0574060  33.9185552
   8.4613032   4.2461531  32.4336620  10.6942313   4.1939304  36.9551156
  10.3300520   3.6669925  37.6664078  11.5509429   3.8037773  36.7817642
  10.3137021   1.6786861  32.9359172  10.1936646   2.1243912  33.7744652
   9.6189609   2.0272179  32.3772710   8.0743913  14.4490503  36.5849303
   7.9967942  15.3998328  36.6637784   7.4705556  14.1036375  37.2424229
  16.0122087   2.1508334  33.7639506  16.9239943   2.3835721  33.5887203
  15.5031734   2.7345378  33.2014584  14.6191669   7.1334153  41.1553087
  13.9900532   7.2979867  40.4529155  14.2317331   7.5475762  41.9264051
  18.4980901   8.0688591  38.5097451  17.8131939   8.4487492  37.9594484
  18.5824750   8.6783917  39.2429399  10.1719631   6.8708561  38.4203172
  10.6357977   7.1496264  37.6307795   9.9076429   5.9692005  38.2376263
  16.8677661   8.5920505  43.2815152  17.6895104   8.1900692  42.9997834
  16.8640063   8.4888739  44.2331268  24.9583654   4.9359253  39.6300123
  24.2047362   4.3666652  39.4744128  25.0931195   4.9021918  40.5770758
  10.3482282   9.8072656  35.3054843  10.2127956  10.6524192  35.7339691
  10.8892094  10.0091933  34.5420777   3.8011679   7.3248094  35.8782768
   4.3136200   8.1191344  36.0288333   4.4534392   6.6274384  35.8116369
   5.6106564  10.4413850  37.9605521   5.7873192  11.3631815  37.7726505
   6.4063397  10.1272269  38.3899901  13.6625028   3.3211829  32.3426171
  13.1471651   4.0916433  32.5814559  13.3902336   2.6476965  32.9659233
  18.6359302   6.0744183  34.2779345  17.8588745   5.7355343  33.8334507
  19.3150783   6.0796807  33.6034310  13.4511331   1.1938921  34.1685953
  13.1461467   1.5085070  35.0196096  14.4041773   1.2720341  34.2113286
  11.8957763   7.3529144  35.8178907  11.3679125   6.6181904  35.5052144
  11.3945266   8.1303821  35.5718875  16.8750609   5.5478165  40.9345953
  16.2174283   6.2377426  41.0226081  17.6791008   5.9374597  41.2779939
  15.6856068   3.9022537  38.9849895  16.1987950   4.5352529  39.4871604
  16.3357292   3.3023733  38.6193255  10.0410363   5.1709354  28.8213880
   9.1337425   4.9398608  29.0205029  10.5381395   4.3746974  29.0087861
  12.9478442  13.8806862  31.7410566  12.2740141  14.1838558  32.3495524
  13.3344264  14.6835942  31.3916023  12.9471946   2.7763409  36.3610915
  13.6943765   3.2884806  36.0518037  13.2163536   2.4547461  37.2215309
  11.2198597   5.2721949  33.3437870  10.3109816   4.9880982  33.4410339
  11.2493680   5.6921028  32.4841176  16.4517864   8.8828539  37.1129037
  15.9980191   8.0419449  37.1694228  15.8211831   9.5189937  37.4503817
  15.3950784  -0.1879475  38.3429705  14.6573540  -0.7002089  38.6739947
  15.6477557  -0.6279094  37.5312982  14.8950803  10.7205036  38.0478855
  15.1873778  11.2810093  37.3291221  15.4049424  11.0133597  38.8032014
  10.9174684   6.8130693  30.6825948  10.4794114   6.0966552  30.2231586
  11.6585125   7.0406808  30.1211040   9.8584428  11.4985387  39.1372309
   9.8160607  11.7246233  38.2080841  10.7747127  11.2648761  39.2858110
  19.0347799   5.0887890  36.7402267  18.8965698   5.2789486  35.8123456
  18.6784018   5.8507273  37.1970318  19.0617179   7.1564417  41.7513538
  19.4953685   7.0639706  42.5996592  19.7748760   7.1321918  41.1133554
   7.9750229   8.3748416  38.9334271   8.7690828   7.8798736  38.7316846
   7.2641922   7.8466279  38.5701977  12.7945074  10.7566511  43.2846639
  12.8482096  11.3257447  44.0524355  11.9259855  10.9268396  42.9200676
  11.1469657  14.0486534  33.9557645  11.3221413  13.5774577  34.7703268
  10.4602445  14.6752300  34.1838906  12.1026720   8.3259040  40.0020946
  11.7676553   8.2859810  40.8978596  11.6030666   7.6603756  39.5291356
  15.0385912   5.6715075  30.2758006  14.4215083   4.9461903  30.1791058
  14.5702400   6.4324435  29.9325080   5.7130742  17.1975897  40.7297505
   5.9527341  17.8294421  41.4076524   4.8699939  16.8463937  41.0162864
  10.2258604  13.0055019  43.1339009  10.1528776  13.8109991  43.6458314
   9.7835997  13.2046985  42.3087030  10.0148384  12.2426789  36.6441831
   9.2315906  12.7848470  36.7380055  10.7141129  12.7600769  37.0436072
  21.1774791   3.7561784  40.9294327  21.1664668   4.6386500  40.5588261
  20.3092171   3.4033335  40.7348865  12.6857288  12.9041853  45.2897168
  13.3985260  13.5389318  45.2173069  12.1947317  13.0005719  44.4737170
  14.4074815   6.8093106  36.8614459  13.4731094   6.9294568  36.6919164
  14.5851483   5.9065573  36.5974469  17.7947366   2.6510425  37.3964494
  18.2607818   3.4838417  37.3224796  18.2454867   2.1855407  38.1009752
  15.8623597   8.9954247  34.3950646  16.1383441   8.8810841  35.3044520
  14.9928096   8.5971731  34.3562819  12.4977661  13.2440597  38.0383459
  12.6800056  12.4262253  38.5011211  13.3210647  13.4608290  37.6008349
  12.8319827  12.1708783  35.2998508  13.3607593  11.6601237  34.6868670
  13.0948046  11.8551313  36.1644041   6.1875575  13.2223899  38.0596284
   5.5185950  13.7070027  37.5760324   6.0488444  13.4693120  38.9739662
  10.3280843  15.2567643  44.6578942  10.8799151  15.4199264  45.4228027
  10.6687037  15.8472081  43.9858967  13.4649231  13.2049618  41.6442624
  13.3400370  12.4039358  41.1353570  14.1228322  13.6995812  41.1556594
  15.5284139  11.0058638  43.2722174  14.5814474  10.8863990  43.2000501
  15.8766912  10.1181136  43.3548436  12.5330572  10.8011355  39.4726526
  12.3855535   9.8728062  39.6534096  13.3584066  10.8231445  38.9883602
  16.1364694  11.6239913  40.5591399  17.0611242  11.4182775  40.4215850
  15.9679997  11.3756314  41.4680741  15.9260010  12.1425581  35.9153491
  16.0996888  11.5772003  35.1627343  16.4188902  12.9426476  35.7332981
  21.7799401   4.9062004  37.5343790  22.2230547   4.1569329  37.1362914
  20.9025912   4.8972140  37.1517522  16.9135183  11.4592345  33.0150389
  17.6086087  12.0799038  33.2337704  17.2558333  10.6087696  33.2902767
  18.8126606   8.9092051  34.5437720  19.3377930   9.2479323  33.8187040
  18.7248958   7.9739066  34.3600854  10.4967267  14.9764034  38.9032973
  10.0572257  14.4840413  39.5965830  11.2475384  14.4337002  38.6625048
   2.9759606  11.1675575  38.9057601   3.8017626  10.8679347  38.5256244
   2.6253658  10.3983197  39.3547390   7.9441139  10.5202043  40.9755275
   7.3221148   9.8572748  40.6757502   8.6146006  10.5463175  40.2928922
   7.5054646   9.0705966  34.4513735   7.6542766   9.7541431  33.7980408
   8.3121089   9.0511056  34.9663191  21.3232266   6.3767242  39.9266238
  22.1579158   6.8157046  40.0903798  21.4591395   5.9005895  39.1074484
  11.0050051  11.5654097  31.9225483  10.4324018  12.1844284  31.4695954
  11.5782845  12.1153459  32.4565404  14.2247311  11.8491247  33.0534065
  15.1577984  11.7836809  33.2566940  14.1370524  12.6847514  32.5948597
  16.8535328  11.1657117  30.0138012  16.7748959  10.8316981  30.9073770
  17.6744994  11.6578885  30.0129485  11.3896850   2.9014910  29.2641535
  12.3355954   2.7721118  29.3329953  11.0111095   2.1629572  29.7410963
  25.3690069   5.0934863  42.3620368  26.0993457   4.8320152  42.9228071
  24.7597014   4.3563585  42.4022436  23.4505366   3.2342726  42.9594819
  22.7238529   3.0998691  42.3511311  23.0352653   3.5419555  43.7651537
  15.2796066  -1.2819562  35.5399971  14.3921921  -0.9969911  35.3220165
  15.6950055  -1.4425799  34.6927248  18.6310602  -1.2573041  39.2554310
  19.4070992  -0.7676589  39.5278927  17.9058736  -0.8314987  39.7126179
  21.0683161  -0.5445422  40.3128251  21.6627652  -0.7849686  39.6021559
  21.1409744  -1.2638291  40.9401787   3.2880316  13.2988189  40.6271415
   3.1534784  12.5388590  40.0609413   2.8712379  14.0229089  40.1600204
  14.4239279   8.4825113  29.6347991  15.1275130   8.6875115  30.2505646
  13.7001928   9.0501875  29.8997074  15.2537090   4.2334974  35.7550261
  15.1972291   4.6903525  34.9157893  15.8065432   3.4725659  35.5773104
  19.0641896   0.0224706  36.5800380  18.8078830  -0.3778658  37.4108588
  18.4394764   0.7368500  36.4550519  23.3754234   2.7620779  39.0871672
  22.8153791   2.8313968  39.8603234  22.7697737   2.5861764  38.3671168
   6.4449442  14.1957506  40.8389858   6.3281826  15.1402939  40.7368548
   5.6241889  13.8931068  41.2275657  16.3325977   8.9207642  31.6846451
  17.1671581   8.4888840  31.5023926  16.1710320   8.7489656  32.6123345
  15.9871869   5.4239755  33.0502790  15.9320673   5.2584027  32.1091234
  15.3617924   6.1315788  33.2064980   7.4703956  14.8485768  44.0545786
   8.3731203  14.8809378  44.3712281   7.2441327  13.9186219  44.0692122
   9.2257558  13.6016755  40.7155865   8.2753189  13.6018616  40.6020237
   9.5290045  12.8549489  40.1991900  24.9610252  19.4377293  41.7801627
  25.5988662  19.3184040  41.0764968  24.8431095  20.3858137  41.8389580
  21.7699958  19.3904721  41.7163152  21.4318470  19.2745786  40.8283687
  22.6389726  18.9895886  41.6964158  17.6286774  21.2440198  37.7060043
  17.0651639  21.1530134  36.9376331  17.5139169  20.4240102  38.1862536
  22.2519741  20.5439573  47.6749358  22.2408382  20.1492371  46.8029861
  22.4140381  19.8105645  48.2683129  15.1751206  22.7391389  40.5444264
  15.9672498  22.3982214  40.1290563  15.4147856  22.8486364  41.4646417
  17.1341960  22.0000302  33.4161642  17.9072836  21.4529289  33.2774518
  17.4867359  22.8644552  33.6276104  18.9727002  23.3276685  46.6228542
  18.6816868  24.2322316  46.5075208  19.6083987  23.3693212  47.3372611
  19.8983209  20.7053533  43.2129901  20.4946781  20.4809556  42.4986864
  19.9558181  19.9638279  43.8155349  19.4708238  18.1592969  31.0480092
  19.7233758  17.6374490  30.2863555  18.5332797  17.9959114  31.1506776
  24.5151520  17.1628747  38.8554836  25.3014610  16.7448170  38.5045253
  24.7790225  18.0674839  39.0236484  29.9159948  17.1003980  39.7587814
  30.6485120  16.5303197  39.9925644  29.1599303  16.7125581  40.1994320
  19.1904526  20.0621074  33.2504467  19.0740784  19.3865978  33.9185552
  19.3006786  19.5753448  32.4336620  21.5336067  19.5231222  36.9551156
  21.1694275  18.9961843  37.6664078  22.3903183  19.1329691  36.7817642
  27.4385368  10.8125554  44.2182423  27.1068693  11.6820965  43.9943638
  26.8430981  10.4961838  44.8976453  21.1741554  14.5521121  31.9512505
  21.3415957  15.4201358  32.3182976  20.9838723  14.7148403  31.0273794
  23.9316887  23.0138100  43.6178335  23.6317611  23.9163139  43.5094143
  23.5867947  22.7470283  44.4699488  17.3829369  19.4651897  39.6515040
  16.4579865  19.3328111  39.8592732  17.6313782  20.2446116  40.1484982
  27.3314031  15.5320640  41.2975773  26.4230909  15.4636049  41.0034534
  27.2801627  16.0092585  42.1257598  21.1530775  17.0078779  32.9359172
  21.0330400  17.4535830  33.7744652  20.4583364  17.3564096  32.3772710
  14.7438180  19.1085171  40.4858829  14.8730561  19.3619649  41.3998241
  14.0635631  19.7012879  40.1663484  21.4054897  16.9510286  49.2410670
  20.6288231  17.5104206  49.2313535  22.0445460  17.4367069  49.7625540
  29.1975678  13.7337079  43.0753647  28.5550058  14.0269612  42.4293441
  28.6930606  13.6189999  43.8806843  26.8515841  17.4800252  33.7639506
  27.7633697  17.7127639  33.5887203  26.3425488  18.0637296  33.2014584
  19.6601269  19.7595739  48.8028637  20.4015954  20.2980783  48.5263461
  18.9538255  20.3862028  48.9600189  25.1356609  21.9024880  47.4000798
  25.5439965  21.4607290  46.6555431  24.4133870  21.3277507  47.6534991
  21.4887679  16.8397487  44.7734355  22.3348874  17.2636900  44.9169004
  21.4286317  16.1831111  45.4672918  25.4585424  22.4626070  41.1553087
  24.8294286  22.6271785  40.4529155  25.0711086  22.8767680  41.9264051
  29.3374656  23.3980508  38.5097451  28.6525694  23.7779410  37.9594484
  29.4218505  24.0075835  39.2429399  24.6387124  14.5001855  46.4315529
  24.3948056  15.2543915  45.8949805  24.9147055  14.8787203  47.2662776
  26.5925587  21.0440467  45.1092795  26.8042482  21.6872227  44.4327176
  26.5455335  20.2102784  44.6414725  24.1951816  13.6558288  42.0129367
  23.3336295  13.9539541  42.3046104  24.2214251  13.8728687  41.0810399
  21.0113386  22.2000478  38.4203172  21.4751731  22.4788181  37.6307795
  20.7470184  21.2983923  38.2376263  17.9037467  21.7471960  41.3582936
  18.4738824  22.1759228  40.7200420  18.4945578  21.4654545  42.0567121
  19.9482272  18.3223631  35.2292738  20.6506315  18.7744675  35.6966664
  19.6162900  17.6807450  35.8572631  18.3962633  16.9135387  49.6043947
  17.7661294  17.5951668  49.8379344  18.2898721  16.8018469  48.6597085
  13.6907606  16.5807184  40.5309871  12.9006660  16.8364712  40.0549982
  14.1818853  17.3955521  40.6361912  27.7071415  23.9212423  43.2815152
  28.5288859  23.5192610  42.9997834  27.7033818  23.8180657  44.2331268
  15.6422351  16.9451763  37.4893348  14.8453514  17.0570457  38.0076843
  15.4147943  17.2838415  36.6234238  21.4728019  23.4696466  45.4375862
  21.5372451  23.9316873  46.2734034  20.7638942  22.8393831  45.5658172
  11.9745309  16.8337674  42.9624862  12.2253347  17.7184684  43.2282438
  12.5104857  16.6542276  42.1899954  35.7977408  20.2651171  39.6300123
  35.0441117  19.6958569  39.4744128  35.9324949  20.2313836  40.5770758
  14.6405434  22.6540012  35.8782768  15.1529954  23.4483262  36.0288333
  15.2928146  21.9566302  35.8116369  16.4500318  25.7705768  37.9605521
  16.6266947  26.6923732  37.7726505  17.2457152  25.4564187  38.3899901
  15.7352675  17.8170400  47.8367684  15.6206190  16.9155657  48.1374783
  14.8797193  18.0634096  47.4852501  22.8144513  25.7588140  49.4355185
  22.3708367  24.9724519  49.1176089  23.4761726  25.9467290  48.7699076
  17.5731634  27.2883942  43.9615863  18.1239059  27.1601005  43.1892857
  16.7343110  27.5878831  43.6110756  24.9125751  26.0390940  47.4636586
  24.8944226  26.8599821  46.9716855  25.8345671  25.9145015  47.6886727
  21.3698805  23.5535069  48.3060094  21.9027142  22.7923358  48.0759402
  20.8412886  23.2608721  49.0484249  24.5368500   8.6595135  43.8353736
  24.1932769   9.5496777  43.7592847  24.9047462   8.4696793  42.9723321
  12.6054350  20.9828666  36.6542338  13.4429572  21.3925674  36.4376046
  12.7832618  20.0428108  36.6242532  24.5018782  18.6503746  32.3426171
  23.9865406  19.4208351  32.5814559  24.2296091  17.9768883  32.9659233
  22.0865894  13.4953447  37.4011410  21.2307490  13.1060298  37.2217048
  22.4992845  13.5745408  36.5411195  23.6165040  11.0299791  41.8002969
  23.1129836  10.9929926  40.9870775  23.9095647  11.9392533  41.8599626
  19.8607926  11.1138520  40.8069151  20.7260923  10.9181329  40.4475041
  19.9285435  10.8848872  41.7338508  24.2905086  16.5230839  34.1685953
  23.9855221  16.8376988  35.0196096  25.2435528  16.6012258  34.2113286
  27.7144364  20.8770082  40.9345953  27.0568038  21.5669344  41.0226081
  28.5184763  21.2666514  41.2779939  17.4670245  13.3440728  38.1785518
  18.0413997  13.1215910  37.4458711  18.0541228  13.4129423  38.9314119
  26.5249822  19.2314455  38.9849895  27.0381704  19.8644447  39.4871604
  27.1751046  18.6315651  38.6193255  17.7939832  15.3745189  32.1981403
  16.9577144  15.7119876  32.5190678  17.6544602  15.2394169  31.2608540
  19.7692913  10.2181977  36.9060587  19.1157325   9.9030994  36.2817202
  19.7273387   9.5957718  37.6320410  20.8804118  20.5001272  28.8213880
  19.9731179  20.2690526  29.0205029  21.3775150  19.7038891  29.0087861
  23.0030653  16.7063911  41.2308235  22.0853215  16.9278858  41.0729923
  23.4190797  16.7810221  40.3719942  23.7865701  18.1055326  36.3610915
  24.5337520  18.6176724  36.0518037  24.0557290  17.7839379  37.2215309
  22.0592351  20.6013867  33.3437870  21.1503570  20.3172900  33.4410339
  22.0887435  21.0212946  32.4841176  27.2911619  24.2120457  37.1129037
  26.8373946  23.3711366  37.1694228  26.6605585  24.8481855  37.4503817
  26.2344538  15.1412443  38.3429705  25.4967295  14.6289829  38.6739947
  26.4871312  14.7012824  37.5312982  25.7344558  26.0496953  38.0478855
  26.0267532  26.6102010  37.3291221  26.2443178  26.3425514  38.8032014
  26.3356165   7.9188695  38.9371474  26.6415042   7.0586058  38.6497389
  27.0608770   8.5106315  38.7370468  12.6280521  18.3219381  37.3253072
  12.4304921  17.7288742  36.6004138  12.0727185  18.0171591  38.0429011
  20.6077245  18.2142488  39.4447665  20.6625855  17.2616324  39.3690142
  19.7968447  18.3701927  39.9288963  21.7568439  22.1422611  30.6825948
  21.3187869  21.4258470  30.2231586  22.4978880  22.3698726  30.1211040
  18.5469605  16.8319547  37.2038044  17.7337471  17.1313718  37.6103236
  19.0428599  16.4375236  37.9212526  24.1443817  17.2961372  46.0352938
  24.4993204  17.5232845  46.8947403  24.7915948  17.6279749  45.4130193
  29.8741554  20.4179808  36.7402267  29.7359452  20.6081404  35.8123456
  29.5177773  21.1799191  37.1970318  18.0383680  14.4037903  42.8199279
  18.6783059  14.2626662  42.1222242  17.2061210  14.1172416  42.4437881
  29.9010933  22.4856335  41.7513538  30.3347440  22.3931624  42.5996592
  30.6142514  22.4613835  41.1133554  18.8143984  23.7040333  38.9334271
  19.6084582  23.2090653  38.7316846  18.1035676  23.1758196  38.5701977
  23.6338828  26.0858429  43.2846639  23.6875850  26.6549365  44.0524355
  22.7653610  26.2560314  42.9200676  15.1226747  17.8483415  35.0094024
  14.1924335  17.7867871  35.2263986  15.2184219  17.3259368  34.2130665
  15.0412296  14.3738228  37.5972266  15.3019114  15.2883561  37.4881426
  15.8629469  13.9062670  37.7468878  16.5137222  15.7875985  44.7671090
  17.1860275  15.5793347  44.1183739  15.6867008  15.5898071  44.3276322
  30.7626483  22.5280035  44.2846424  30.9562373  23.4325846  44.5305699
  30.6627101  22.0687454  45.1185009  22.4162794  12.4137926  46.7836751
  21.7690709  13.1127876  46.6901227  23.1863809  12.8474070  47.1512999
  25.8241592  22.6786778  49.8587304  25.6727098  22.4497330  48.9417388
  25.8146271  23.6357380  49.8718649  22.5926928  20.2518691  44.8433571
  23.5218988  20.4029850  44.6702538  22.1717958  20.3402712  43.9882217
  21.3915260  24.2769355  42.6132108  21.2526345  23.9088140  43.4858046
  20.6029856  24.7916995  42.4416066  22.9420475  23.6550958  40.0020946
  22.6070307  23.6151728  40.8978596  22.4424421  22.9895674  39.5291356
  16.9164719  19.0618588  45.5273527  16.7784517  18.3298827  46.1285066
  17.8269642  18.9727488  45.2457715  19.5447019  18.7738547  45.0157207
  20.2546638  18.1331740  44.9743825  19.5016328  19.0251442  45.9383388
  27.5333798  25.7105901  47.9363786  27.4746344  25.0265121  47.2694369
  27.9353317  26.4524891  47.4844412  18.2575953  15.7603765  46.8352846
  17.7213310  15.3094504  47.4874443  17.6692662  15.8949674  46.0923311
  16.5524497  32.5267815  40.7297505  16.7921095  33.1586339  41.4076524
  15.7093693  32.1755855  41.0162864  17.6678212  15.2192417  29.3979310
  16.7907679  15.0981217  29.0341557  18.1435965  14.4278495  29.1458199
  27.5351205  23.6745485  46.1677766  26.6477984  23.3371406  46.2904165
  28.1049757  22.9428516  46.4046531   9.1880353  20.0069576  39.4920817
   9.8751392  19.6931306  38.9041833   9.0328481  20.9110941  39.2188069
  13.9915075  14.8959773  43.9205841  13.9073263  14.2885442  43.1856251
  13.1697781  15.3868791  43.9215337  21.0652359  28.3346937  43.1339009
  20.9922530  29.1401908  43.6458314  20.6229752  28.5338903  42.3087030
  24.1638789  13.3813336  39.2876036  24.6607488  12.6283299  38.9677106
  23.3925770  13.4177653  38.7219245  32.0168546  19.0853702  40.9294327
  32.0058422  19.9678417  40.5588261  31.1485925  18.7325253  40.7348865
  23.5251042  28.2333771  45.2897168  24.2379015  28.8681236  45.2173069
  23.0341071  28.3297637  44.4737170  25.2468569  22.1385024  36.8614459
  24.3124848  22.2586486  36.6919164  25.4245238  21.2357490  36.5974469
  20.7473757  15.5230719  39.0147721  20.3771545  14.9701760  39.7028626
  21.2432850  14.9188853  38.4622721  28.6341121  17.9802343  37.3964494
  29.1001573  18.8130335  37.3224796  29.0848621  17.5147325  38.1009752
  18.5762956  25.9828214  46.1102739  19.2772415  26.6164697  46.2632133
  18.1058071  26.3242946  45.3498378  26.6057783  10.3482930  41.4355395
  25.6920863  10.5787157  41.6037602  27.0350885  10.4321374  42.2869427
  26.3764242  18.5372822  43.9355289  25.7235692  18.7848729  43.2807742
  26.7544622  17.7236960  43.6017766  22.4251815  19.2792633  50.4221326
  21.7492452  19.1786762  51.0923701  23.2479449  19.1231847  50.8857323
  14.1730674  25.5164570  43.0433841  14.7584111  24.7708257  43.1761745
  13.9755512  25.8268526  43.9270505  17.0269329  28.5515817  38.0596284
  16.3579704  29.0361945  37.5760324  16.8882199  28.7985037  38.9739662
   8.7648329  18.0870170  41.7638284   8.8032428  17.5533760  42.5575402
   8.2588622  17.5605375  41.1449262  21.1674598  30.5859560  44.6578942
  21.7192906  30.7491182  45.4228027  21.5080791  31.1763998  43.9858967
  16.1439091  12.9334710  45.2600827  16.2080417  13.7949541  44.8478224
  16.0806211  12.3208712  44.5273185  26.0185472  25.4120818  50.5127596
  26.5625376  26.0250776  50.0182551  25.4372317  25.9700396  51.0294609
  12.3956906  16.8134272  34.8392216  12.6910347  15.9044950  34.7859269
  11.4944942  16.7922011  34.5173218  24.3042985  28.5341536  41.6442624
  24.1794124  27.7331276  41.1353570  24.9622076  29.0287729  41.1556594
  15.9251153  14.8890268  40.8219764  15.2037739  15.5026236  40.6827238
  16.7144409  15.4248033  40.7436410  26.3677893  26.3350556  43.2722174
  25.4208229  26.2155907  43.2000501  26.7160667  25.4473054  43.3548436
  18.7277467  12.2244695  47.0960416  19.2511869  12.4706991  47.8586725
  18.5089800  13.0564730  46.6763553  14.1244748  14.4948370  34.9631541
  13.7957454  13.6145748  34.7806647  14.4784119  14.4396038  35.8507930
  23.3724327  26.1303272  39.4726526  23.2249289  25.2019980  39.6534096
  24.1977820  26.1523363  38.9883602  17.2386571  14.7821339  35.3307019
  17.5782644  15.3107261  34.6085627  17.6858691  15.1201745  36.1065585
  26.9758449  26.9531831  40.5591399  27.9004996  26.7474692  40.4215850
  26.8073752  26.7048232  41.4680741  19.9330012  13.1658390  44.7810087
  19.5926832  12.3666203  45.1830767  19.2269018  13.4660101  44.2086920
  20.5846484  10.2507702  43.2337410  21.4072553   9.7768181  43.1116300
  20.8284547  11.0298186  43.7336096  19.2254718  13.2795961  33.5300311
  19.9463081  13.6577214  33.0264028  18.6020022  13.9984838  33.6335289
  23.3685841  13.9841110  34.4658644  23.5849455  14.8665748  34.1647472
  22.8879908  13.5927323  33.7364286  18.1085062  16.9426823  41.0429388
  17.9629643  17.2567126  41.9353670  17.6310266  17.5611723  40.4900287
  19.9681445  13.9329371  41.0910278  19.9543014  13.0370464  40.7542576
  20.6853873  13.9400035  41.7248564  21.8207576  14.3666711  43.1363405
  21.5625354  15.2883782  43.1347736  21.2892616  13.9697146  43.8263869
  12.5830725  19.4832168  43.9817049  12.0384193  20.2591975  44.1137324
  13.4610074  19.8302972  43.8236171  19.3718341  12.8143751  36.3597848
  19.4934252  11.8860398  36.5588735  19.0820384  12.8282437  35.4476163
  22.2409532  10.4998662  39.4964568  22.2631228  10.5637995  38.5416547
  22.6577591   9.6603170  39.6905074  32.6193156  20.2353921  37.5343790
  33.0624302  19.4861247  37.1362914  31.7419666  20.2264058  37.1517522
  13.3696746  18.6102064  46.8747206  12.6278482  18.7584699  47.4611837
  13.0489491  18.8710329  46.0113956  21.3140409  28.1518042  46.6727596
  21.6227536  27.9067189  47.5450296  22.1115891  28.3564680  46.1846467
  21.3361021  30.3055952  38.9032973  20.8966011  29.8132330  39.5965830
  22.0869138  29.7628919  38.6625048  13.8153360  26.4967492  38.9057601
  14.6411380  26.1971264  38.5256244  13.4647412  25.7275115  39.3547390
  18.7834893  25.8493961  40.9755275  18.1614903  25.1864666  40.6757502
  19.4539760  25.8755093  40.2928922  12.0161965  24.4153819  39.8646535
  11.1793873  23.9875993  39.6830536  11.9885611  24.6086262  40.8017326
  29.3414266  24.8716872  49.8488918  28.5509810  24.8541011  49.3093417
  29.1047621  25.4105166  50.6037954  29.4612142  21.7209338  47.1621646
  29.5110146  21.5559346  48.1037169  29.3526065  20.8536597  46.7719527
  26.7515904  17.7040266  48.4780953  27.6525767  17.5646731  48.1864951
  26.8263878  17.8694721  49.4179130  21.0858709  15.0807121  47.3234139
  20.2162019  15.3740687  47.0516728  21.3218190  15.6647566  48.0441403
  30.9630338  24.1406280  47.4063668  30.6715147  24.5036260  48.2427129
  30.3502470  23.4273288  47.2277000  32.1626021  21.7059160  39.9266238
  32.9972912  22.1448964  40.0903798  32.2985149  21.2297813  39.1074484
  29.2117527  19.2638895  45.8743726  29.6871648  19.4566541  45.0662577
  28.2883092  19.3198080  45.6287109  16.1001033  20.4263062  35.4574804
  15.8547075  19.5225392  35.6555014  16.2696948  20.4280212  34.5154282
  23.7897743  11.2986738  44.8399560  24.3079687  12.0347765  44.5146048
  23.4352876  11.6050731  45.6746319  15.3696681  16.1591419  32.9560965
  14.6765926  16.2335774  32.3001001  15.1248433  15.3951763  33.4782482
  24.0410337   7.7187021  40.3600456  24.3212091   7.0510210  40.9860883
  24.8260944   7.9116116  39.8475120  27.9119196  16.1404655  44.1072031
  28.8636618  16.2402752  44.1284255  27.7422646  15.3482923  44.6170116
  25.9333575  13.2260238  44.2931432  25.3383507  13.5065251  43.5977921
  25.6483272  13.7154139  45.0648173  30.3907273  19.3610774  43.2214331
  30.3583593  18.4226775  43.4074015  31.0007897  19.4394811  42.4880156
  22.2290604  18.2306827  29.2641535  23.1749709  18.1013035  29.3329953
  21.8504849  17.4921489  29.7410963  30.5401762  16.1521818  43.2672614
  30.0240810  15.3680274  43.0802543  31.4241710  15.8240534  43.4319134
  28.2012489   9.8962833  39.2268427  28.0037310   9.5877921  40.1111759
  28.8112194  10.6224472  39.3566357  36.2083823  20.4226781  42.3620368
  36.9387212  20.1612069  42.9228071  35.5990769  19.6855503  42.4022436
  34.2899120  18.5634644  42.9594819  33.5632284  18.4290609  42.3511311
  33.8746407  18.8711472  43.7651537  22.1129297  22.2824573  50.7242192
  23.0332306  22.4603172  50.9182238  22.0778880  21.3380619  50.5721891
  20.4133521  16.1556804  29.1996420  19.5064977  15.8589916  29.2759134
  20.6909502  15.8586622  28.3330706  11.3311462  17.4763167  39.6495467
  11.0114246  16.6228475  39.3569841  10.7844890  17.6911745  40.4053434
  15.1091369  20.1925608  43.3664973  15.3277379  21.1242716  43.3853007
  15.5217143  19.8333582  44.1519777  22.0295587  10.6993693  35.3540662
  21.2196315  10.3540778  35.7295908  22.7180004  10.3901237  35.9428273
  23.9586135   9.7771740  36.9764958  24.5117174  10.1967194  37.6354981
  24.1956222   8.8507488  37.0187914  19.1832306  13.0143739  29.3408399
  20.0451470  13.3398637  29.6004217  19.3682650  12.2275235  28.8281465
  11.1999722  21.0966079  41.6188588  10.5063193  20.6820031  41.1058543
  11.9472713  21.1386615  41.0222007  27.3364942  11.8872265  36.4843622
  26.7563612  12.5457069  36.1021675  27.0700875  11.0649610  36.0731040
  25.7868509  11.2877323  38.6864943  26.2868287  11.3993858  37.8779262
  26.4304117  10.9838376  39.3265751  19.8450505  19.1955953  51.5732784
  19.3617586  19.9956313  51.7796673  19.9311444  19.2063898  50.6200228
  13.1136464  21.0284332  39.4954603  13.0907152  21.1272020  38.5436486
  13.4237101  21.8749483  39.8171769  15.7723842  23.0860487  43.6101218
  16.7267096  23.0544430  43.5431149  15.5736366  22.6251111  44.4251443
  16.3623224  21.6561603  46.1772015  17.1816113  22.1505682  46.2006852
  16.6360032  20.7393572  46.1489583  26.1189820  14.0472356  35.5399971
  25.2315676  14.3322006  35.3220165  26.5343810  13.8866119  34.6927248
  29.4704357  14.0718877  39.2554310  30.2464747  14.5615329  39.5278927
  28.7452491  14.4976931  39.7126179  31.9076915  14.7846496  40.3128251
  32.5021406  14.5442232  39.6021559  31.9803499  14.0653626  40.9401787
  14.1274071  28.6280107  40.6271415  13.9928539  27.8680508  40.0609413
  13.7106133  29.3521007  40.1600204  26.0930844  19.5626892  35.7550261
  26.0366046  20.0195443  34.9157893  26.6459187  18.8017576  35.5773104
  29.9035650  15.3516624  36.5800380  29.6472584  14.9513259  37.4108588
  29.2788518  16.0660417  36.4550519  34.2147988  18.0912697  39.0871672
  33.6547546  18.1605886  39.8603234  33.6091491  17.9153681  38.3671168
  17.2843197  29.5249424  40.8389858  17.1675581  30.4694856  40.7368548
  16.4635643  29.2222985  41.2275657  24.1411531  23.0580585  52.3756353
  25.0102690  23.2321237  52.0142988  23.6618282  23.8775002  52.2532082
  20.1361749  10.2539782  32.6288108  20.1240419  11.1981622  32.7856379
  21.0285171  10.0709927  32.3347570  18.3097711  30.1777686  44.0545786
  19.2124958  30.2101296  44.3712281  18.0835081  29.2478137  44.0692122
  20.0651313  28.9308672  40.7155865  19.1146944  28.9310534  40.6020237
  20.3683799  28.1841407  40.1991900  23.9513868   6.8482559  36.8834045
  23.1846264   6.2941045  37.0290728  24.3624573   6.9204427  37.7448197
  35.8004006  34.7669211  41.7801627  36.4382416  34.6475958  41.0764968
  35.6824849  35.7150055  41.8389580  32.6093713  34.7196639  41.7163152
  32.2712224  34.6037704  40.8283687  33.4783481  34.3187804  41.6964158
  28.4680528  36.5732115  37.7060043  27.9045394  36.4822052  36.9376331
  28.3532923  35.7532020  38.1862536  33.0913496  35.8731491  47.6749358
  33.0802136  35.4784289  46.8029861  33.2534135  35.1397563  48.2683129
  26.0144960  38.0683307  40.5444264  26.8066252  37.7274131  40.1290563
  26.2541611  38.1778282  41.4646417  34.0480087  40.2403083  33.0174508
  33.3968067  40.8257163  32.6308522  34.8424450  40.7709278  33.0769545
  29.8120757  38.6568602  46.6228542  29.5210623  39.5614233  46.5075208
  30.4477741  38.6985130  47.3372611  30.7376964  36.0345451  43.2129901
  31.3340536  35.8101473  42.4986864  30.7951935  35.2930196  43.8155349
  35.3545275  32.4920665  38.8554836  36.1408364  32.0740088  38.5045253
  35.6183979  33.3966757  39.0236484  35.5255352  37.9293515  33.5543492
  34.8901185  38.0028141  34.2664397  35.1952759  38.5187114  32.8762572
  40.7553702  32.4295898  39.7587814  41.4878874  31.8595115  39.9925644
  39.9993058  32.0417498  40.1994320  32.3729822  34.8523139  36.9551156
  32.0088029  34.3253760  37.6664078  33.2296938  34.4621608  36.7817642
  38.2779122  26.1417472  44.2182423  37.9462447  27.0112883  43.9943638
  37.6824736  25.8253756  44.8976453  34.7710642  38.3430018  43.6178335
  34.4711365  39.2455057  43.5094143  34.4261701  38.0762201  44.4699488
  28.2223123  34.7943815  39.6515040  27.2973620  34.6620029  39.8592732
  28.4707537  35.5738034  40.1484982  38.1707786  30.8612558  41.2975773
  37.2624663  30.7927966  41.0034534  38.1195382  31.3384503  42.1257598
  25.5831934  34.4377088  40.4858829  25.7124316  34.6911567  41.3998241
  24.9029386  35.0304796  40.1663484  29.7531422  45.1074338  36.5849303
  29.6755451  46.0582163  36.6637784  29.1493065  44.7620211  37.2424229
  32.2448652  32.2802204  49.2410670  31.4681986  32.8396124  49.2313535
  32.8839215  32.7658987  49.7625540  40.0369432  29.0628996  43.0753647
  39.3943812  29.3561530  42.4293441  39.5324361  28.9481917  43.8806843
  37.6909596  32.8092170  33.7639506  38.6027452  33.0419556  33.5887203
  37.1819243  33.3929214  33.2014584  30.4995024  35.0887657  48.8028637
  31.2409708  35.6272701  48.5263461  29.7932009  35.7153946  48.9600189
  35.9750363  37.2316797  47.4000798  36.3833720  36.7899208  46.6555431
  35.2527625  36.6569425  47.6534991  32.3281434  32.1689404  44.7734355
  33.1742629  32.5928818  44.9169004  32.2680071  31.5123029  45.4672918
  36.2979178  37.7917988  41.1553087  35.6688041  37.9563702  40.4529155
  35.9104840  38.2059598  41.9264051  40.1768410  38.7272426  38.5097451
  39.4919448  39.1071327  37.9594484  40.2612259  39.3367753  39.2429399
  35.4780879  29.8293773  46.4315529  35.2341811  30.5835833  45.8949805
  35.7540809  30.2079120  47.2662776  37.4319342  36.3732385  45.1092795
  37.6436237  37.0164145  44.4327176  37.3849090  35.5394702  44.6414725
  35.0345571  28.9850206  42.0129367  34.1730050  29.2831459  42.3046104
  35.0608005  29.2020604  41.0810399  31.8507140  37.5292396  38.4203172
  32.3145486  37.8080099  37.6307795  31.5863938  36.6275841  38.2376263
  28.7431221  37.0763878  41.3582936  29.3132578  37.5051146  40.7200420
  29.3339333  36.7946462  42.0567121  29.2356388  32.2427305  49.6043947
  28.6055048  32.9243586  49.8379344  29.1292475  32.1310387  48.6597085
  24.5301360  31.9099101  40.5309871  23.7400414  32.1656630  40.0549982
  25.0212607  32.7247439  40.6361912  38.5465170  39.2504340  43.2815152
  39.3682613  38.8484528  42.9997834  38.5427572  39.1472575  44.2331268
  32.3121773  38.7988384  45.4375862  32.3766206  39.2608791  46.2734034
  31.6032697  38.1685749  45.5658172  22.8139063  32.1629592  42.9624862
  23.0647101  33.0476602  43.2282438  23.3498611  31.9834193  42.1899954
  46.6371163  35.5943089  39.6300123  45.8834871  35.0250487  39.4744128
  46.7718704  35.5605753  40.5770758  32.0269791  40.4656491  35.3054843
  31.8915465  41.3108027  35.7339691  32.5679603  40.6675769  34.5420777
  28.5137130  26.5448071  51.9669198  28.1204076  25.9914270  52.6416842
  29.3303271  26.8558649  52.3575716  27.2894073  41.0997685  37.9605521
  27.4660701  42.0215650  37.7726505  28.0850906  40.7856105  38.3899901
  31.4305091  27.9605950  49.5589455  32.1714805  28.5613103  49.4793917
  31.6623014  27.2183588  49.0007497  26.5746429  33.1462317  47.8367684
  26.4599944  32.2447575  48.1374783  25.7190947  33.3926014  47.4852501
  33.6538267  41.0880058  49.4355185  33.2102121  40.3016436  49.1176089
  34.3155481  41.2759208  48.7699076  28.4125388  42.6175859  43.9615863
  28.9632813  42.4892923  43.1892857  27.5736864  42.9170748  43.6110756
  35.7519505  41.3682858  47.4636586  35.7337980  42.1891739  46.9716855
  36.6739425  41.2436933  47.6886727  32.2092559  38.8826987  48.3060094
  32.7420896  38.1215275  48.0759402  31.6806640  38.5900639  49.0484249
  35.3762254  23.9887053  43.8353736  35.0326524  24.8788695  43.7592847
  35.7441217  23.7988711  42.9723321  23.4448105  36.3120583  36.6542338
  24.2823327  36.7217592  36.4376046  23.6226373  35.3720026  36.6242532
  35.3412537  33.9795664  32.3426171  34.8259160  34.7500269  32.5814559
  35.0689845  33.3060800  32.9659233  32.9259648  28.8245365  37.4011410
  32.0701244  28.4352215  37.2217048  33.3386600  28.9037326  36.5411195
  34.4558795  26.3591708  41.8002969  33.9523590  26.3221843  40.9870775
  34.7489401  27.2684451  41.8599626  30.7001681  26.4430438  40.8069151
  31.5654677  26.2473247  40.4475041  30.7679189  26.2140790  41.7338508
  40.3146811  36.7328019  34.2779345  39.5376254  36.3939178  33.8334507
  40.9938292  36.7380642  33.6034310  35.1298840  31.8522756  34.1685953
  34.8248976  32.1668905  35.0196096  36.0829282  31.9304176  34.2113286
  33.5745272  38.0112980  35.8178907  33.0466634  37.2765739  35.5052144
  33.0732775  38.7887656  35.5718875  38.5538118  36.2062000  40.9345953
  37.8961792  36.8961261  41.0226081  39.3578517  36.5958432  41.2779939
  37.3643577  34.5606373  38.9849895  37.8775459  35.1936365  39.4871604
  38.0144801  33.9607568  38.6193255  30.6086667  25.5473895  36.9060587
  29.9551080  25.2322912  36.2817202  30.5667141  24.9249635  37.6320410
  31.7197872  35.8293190  28.8213880  30.8124934  35.5982443  29.0205029
  32.2168904  35.0330809  29.0087861  34.6265951  44.5390697  31.7410566
  33.9527650  44.8422394  32.3495524  35.0131773  45.3419777  31.3916023
  33.8424408  32.0355828  41.2308235  32.9246969  32.2570775  41.0729923
  34.2584551  32.1102139  40.3719942  34.6259455  33.4347244  36.3610915
  35.3731274  33.9468641  36.0518037  34.8951045  33.1131297  37.2215309
  32.8986106  35.9305785  33.3437870  31.9897325  35.6464818  33.4410339
  32.9281189  36.3504863  32.4841176  38.1305373  39.5412374  37.1129037
  37.6767700  38.7003284  37.1694228  37.4999340  40.1773773  37.4503817
  37.0738293  30.4704360  38.3429705  36.3361049  29.9581746  38.6739947
  37.3265066  30.0304742  37.5312982  36.5738312  41.3788871  38.0478855
  36.8661287  41.9393928  37.3291221  37.0836933  41.6717432  38.8032014
  37.1749920  23.2480612  38.9371474  37.4808797  22.3877976  38.6497389
  37.9002525  23.8398232  38.7370468  31.4471000  33.5434405  39.4447665
  31.5019609  32.5908242  39.3690142  30.6362202  33.6993844  39.9288963
  32.5962193  37.4714528  30.6825948  32.1581623  36.7550387  30.2231586
  33.3372634  37.6990643  30.1211040  31.5371937  42.1569222  39.1372309
  31.4948116  42.3830068  38.2080841  32.4534636  41.9232597  39.2858110
  34.9837571  32.6253290  46.0352938  35.3386959  32.8524763  46.8947403
  35.6309702  32.9571666  45.4130193  40.7135308  35.7471725  36.7402267
  40.5753207  35.9373321  35.8123456  40.3571527  36.5091108  37.1970318
  28.8777434  29.7329821  42.8199279  29.5176814  29.5918580  42.1222242
  28.0454965  29.4464334  42.4437881  40.7404688  37.8148252  41.7513538
  41.1741194  37.7223542  42.5996592  41.4536268  37.7905753  41.1133554
  29.6537738  39.0332251  38.9334271  30.4478337  38.5382571  38.7316846
  28.9429431  38.5050114  38.5701977  34.4732583  41.4150347  43.2846639
  34.5269605  41.9841283  44.0524355  33.6047364  41.5852232  42.9200676
  27.3530976  31.1167903  44.7671090  28.0254029  30.9085265  44.1183739
  26.5260763  30.9189989  44.3276322  41.6020237  37.8571953  44.2846424
  41.7956127  38.7617764  44.5305699  41.5020856  37.3979372  45.1185009
  33.2556548  27.7429844  46.7836751  32.6084463  28.4419793  46.6901227
  34.0257563  28.1765988  47.1512999  33.4320682  35.5810609  44.8433571
  34.3612742  35.7321768  44.6702538  33.0111712  35.6694629  43.9882217
  32.2309014  39.6061273  42.6132108  32.0920100  39.2380057  43.4858046
  31.4423610  40.1208912  42.4416066  32.8257166  44.7070369  33.9557645
  33.0008922  44.2358413  34.7703268  32.1389954  45.3336136  34.1838906
  33.7814229  38.9842876  40.0020946  33.4464062  38.9443646  40.8978596
  33.2818175  38.3187592  39.5291356  27.7558473  34.3910506  45.5273527
  27.6178271  33.6590745  46.1285066  28.6663397  34.3019406  45.2457715
  36.7173421  36.3298910  30.2758006  36.1002592  35.6045738  30.1791058
  36.2489909  37.0908270  29.9325080  30.3840774  34.1030465  45.0157207
  31.0940393  33.4623657  44.9743825  30.3410082  34.3543360  45.9383388
  29.0969708  31.0895683  46.8352846  28.5607065  30.6386421  47.4874443
  28.5086416  31.2241592  46.0923311  27.3918251  47.8559732  40.7297505
  27.6314850  48.4878256  41.4076524  26.5487448  47.5047772  41.0162864
  38.3744960  39.0037402  46.1677766  37.4871739  38.6663324  46.2904165
  38.9443511  38.2720434  46.4046531  20.0274107  35.3361494  39.4920817
  20.7145147  35.0223224  38.9041833  19.8722236  36.2402859  39.2188069
  24.8308829  30.2251691  43.9205841  24.7467018  29.6177360  43.1856251
  24.0091536  30.7160709  43.9215337  31.9046113  43.6638855  43.1339009
  31.8316285  44.4693826  43.6458314  31.4623506  43.8630820  42.3087030
  31.6935893  42.9010625  36.6441831  30.9103415  43.4432305  36.7380055
  32.3928638  43.4184604  37.0436072  35.0032543  28.7105254  39.2876036
  35.5001243  27.9575216  38.9677106  34.2319525  28.7469571  38.7219245
  42.8562300  34.4145620  40.9294327  42.8452177  35.2970335  40.5588261
  41.9879680  34.0617170  40.7348865  34.3644797  43.5625689  45.2897168
  35.0772769  44.1973153  45.2173069  33.8734825  43.6589555  44.4737170
  36.0862324  37.4676941  36.8614459  35.1518602  37.5878404  36.6919164
  36.2638992  36.5649408  36.5974469  31.5867512  30.8522637  39.0147721
  31.2165299  30.2993678  39.7028626  32.0826604  30.2480771  38.4622721
  39.4734875  33.3094261  37.3964494  39.9395327  34.1422252  37.3224796
  39.9242376  32.8439242  38.1009752  29.4156710  41.3120132  46.1102739
  30.1166170  41.9456615  46.2632133  28.9451825  41.6534864  45.3498378
  37.5411106  39.6538082  34.3950646  37.8170950  39.5394677  35.3044520
  36.6715605  39.2555567  34.3562819  37.4451538  25.6774848  41.4355395
  36.5314618  25.9079074  41.6037602  37.8744639  25.7613292  42.2869427
  37.2157996  33.8664740  43.9355289  36.5629447  34.1140647  43.2807742
  37.5938376  33.0528878  43.6017766  34.1765170  43.9024433  38.0383459
  34.3587565  43.0846089  38.5011211  34.9998156  44.1192125  37.6008349
  34.5107336  42.8292618  35.2998508  35.0395102  42.3185072  34.6868670
  34.7735555  42.5135148  36.1644041  33.2645569  34.6084551  50.4221326
  32.5886206  34.5078680  51.0923701  34.0873203  34.4523764  50.8857323
  25.0124428  40.8456487  43.0433841  25.5977865  40.1000175  43.1761745
  24.8149267  41.1560444  43.9270505  27.8663084  43.8807735  38.0596284
  27.1973459  44.3653862  37.5760324  27.7275953  44.1276955  38.9739662
  19.6042083  33.4162087  41.7638284  19.6426183  32.8825678  42.5575402
  19.0982376  32.8897293  41.1449262  32.0068352  45.9151478  44.6578942
  32.5586660  46.0783100  45.4228027  32.3474546  46.5055916  43.9858967
  26.9832845  28.2626628  45.2600827  27.0474172  29.1241459  44.8478224
  26.9199966  27.6500630  44.5273185  26.4585118  30.3349760  48.9073861
  27.0857157  29.9526838  49.5211385  25.6013037  30.1163962  49.2729553
  35.1436740  43.8633454  41.6442624  35.0187879  43.0623193  41.1353570
  35.8015831  44.3579647  41.1556594  26.7644908  30.2182186  40.8219764
  26.0431494  30.8318154  40.6827238  27.5538164  30.7539951  40.7436410
  37.2071648  41.6642474  43.2722174  36.2601983  41.5447825  43.2000501
  37.5554421  40.7764972  43.3548436  29.5671221  27.5536613  47.0960416
  30.0905623  27.7998909  47.8586725  29.3483555  28.3856647  46.6763553
  34.2118081  41.4595190  39.4726526  34.0643044  40.5311897  39.6534096
  35.0371575  41.4815281  38.9883602  37.8152203  42.2823749  40.5591399
  38.7398751  42.0766610  40.4215850  37.6467506  42.0340150  41.4680741
  30.7723766  28.4950308  44.7810087  30.4320587  27.6958121  45.1830767
  30.0662773  28.7952019  44.2086920  31.4240238  25.5799620  43.2337410
  32.2466307  25.1060098  43.1116300  31.6678302  26.3590104  43.7336096
  34.2079596  29.3133028  34.4658644  34.4243210  30.1957665  34.1647472
  33.7273663  28.9219241  33.7364286  28.9478817  32.2718741  41.0429388
  28.8023398  32.5859044  41.9353670  28.4704021  32.8903641  40.4900287
  30.8075200  29.2621289  41.0910278  30.7936769  28.3662382  40.7542576
  31.5247628  29.2691953  41.7248564  32.6601331  29.6958629  43.1363405
  32.4019108  30.6175700  43.1347736  32.1286371  29.2989064  43.8263869
  37.6047519  42.8009416  35.9153491  37.7784397  42.2355839  35.1627343
  38.0976411  43.6010311  35.7332981  23.4224479  34.8124085  43.9817049
  22.8777947  35.5883893  44.1137324  24.3003829  35.1594890  43.8236171
  33.0803286  25.8290579  39.4964568  33.1024983  25.8929913  38.5416547
  33.4971345  24.9895088  39.6905074  43.4586910  35.5645839  37.5343790
  43.9018056  34.8153164  37.1362914  42.5813421  35.5555975  37.1517522
  38.5922692  42.1176181  33.0150389  39.2873596  42.7382873  33.2337704
  38.9345842  41.2671532  33.2902767  24.2090501  33.9393981  46.8747206
  23.4672237  34.0876617  47.4611837  23.8883245  34.2002247  46.0113956
  40.4914115  39.5675886  34.5437720  41.0165439  39.9063159  33.8187040
  40.4036467  38.6322901  34.3600854  32.1534164  43.4809960  46.6727596
  32.4621290  43.2359106  47.5450296  32.9509646  43.6856598  46.1846467
  32.1754776  45.6347869  38.9032973  31.7359766  45.1424248  39.5965830
  32.9262893  45.0920837  38.6625048  24.6547115  41.8259410  38.9057601
  25.4805135  41.5263182  38.5256244  24.3041167  41.0567033  39.3547390
  29.6228648  41.1785878  40.9755275  29.0008657  40.5156583  40.6757502
  30.2933515  41.2047010  40.2928922  22.8555720  39.7445737  39.8646535
  22.0187628  39.3167911  39.6830536  22.8279365  39.9378180  40.8017326
  29.6953175  29.6567666  50.5687781  29.7441331  30.5329789  50.1865550
  30.2375689  29.1145059  49.9959424  40.3005896  37.0501256  47.1621646
  40.3503901  36.8851263  48.1037169  40.1919819  36.1828515  46.7719527
  29.1842155  39.7289802  34.4513735  29.3330275  40.4125266  33.7980408
  29.9908598  39.7094892  34.9663191  37.5909658  33.0332184  48.4780953
  38.4919521  32.8938649  48.1864951  37.6657633  33.1986639  49.4179130
  31.9252464  30.4099039  47.3234139  31.0555773  30.7032605  47.0516728
  32.1611944  30.9939484  48.0441403  43.0019775  37.0351077  39.9266238
  43.8366667  37.4740881  40.0903798  43.1378904  36.5589731  39.1074484
  40.0511281  34.5930812  45.8743726  40.5265403  34.7858459  45.0662577
  39.1276846  34.6489998  45.6287109  34.6291498  26.6278656  44.8399560
  35.1473441  27.3639683  44.5146048  34.2746630  26.9342649  45.6746319
  34.8804092  23.0478938  40.3600456  35.1605845  22.3802127  40.9860883
  35.6654699  23.2408034  39.8475120  32.6837560  42.2237932  31.9225483
  32.1111527  42.8428119  31.4695954  33.2570354  42.7737294  32.4565404
  38.7512950  31.4696572  44.1072031  39.7030373  31.5694670  44.1284255
  38.5816400  30.6774841  44.6170116  36.7727330  28.5552155  44.2931432
  36.1777262  28.8357168  43.5977921  36.4877026  29.0446056  45.0648173
  35.9034820  42.5075082  33.0534065  36.8365493  42.4420644  33.2566940
  35.8158033  43.3431349  32.5948597  38.5322837  41.8240953  30.0138012
  38.4536468  41.4900816  30.9073770  39.3532503  42.3162721  30.0129485
  41.2301028  34.6902692  43.2214331  41.1977348  33.7518693  43.4074015
  41.8401652  34.7686729  42.4880156  41.3795516  31.4813735  43.2672614
  40.8634565  30.6972192  43.0802543  42.2635465  31.1532452  43.4319134
  39.0406243  25.2254751  39.2268427  38.8431064  24.9169839  40.1111759
  39.6505949  25.9516390  39.3566357  47.0477578  35.7518699  42.3620368
  47.7780966  35.4903987  42.9228071  46.4384523  35.0147421  42.4022436
  45.1292875  33.8926561  42.9594819  44.4026038  33.7582526  42.3511311
  44.7140162  34.2003390  43.7651537  32.9523051  37.6116491  50.7242192
  33.8726061  37.7895090  50.9182238  32.9172634  36.6672536  50.5721891
  22.1705216  32.8055085  39.6495467  21.8508001  31.9520393  39.3569841
  21.6238644  33.0203663  40.4053434  25.9485124  35.5217526  43.3664973
  26.1671134  36.4534634  43.3853007  26.3610898  35.1625500  44.1519777
  32.8689342  26.0285611  35.3540662  32.0590070  25.6832696  35.7295908
  33.5573759  25.7193155  35.9428273  34.7979890  25.1063658  36.9764958
  35.3510928  25.5259111  37.6354981  35.0349976  24.1799406  37.0187914
  30.8212989  31.0950731  52.7567722  30.7209716  32.0445088  52.6879813
  30.6034531  30.7668970  51.8843792  22.0393476  36.4257996  41.6188588
  21.3456948  36.0111949  41.1058543  22.7866467  36.4678533  41.0222007
  38.1758697  27.2164183  36.4843622  37.5957366  27.8748987  36.1021675
  37.9094630  26.3941528  36.0731040  36.6262263  26.6169241  38.6864943
  37.1262042  26.7285775  37.8779262  37.2697871  26.3130294  39.3265751
  30.6844259  34.5247870  51.5732784  30.2011341  35.3248230  51.7796673
  30.7705198  34.5355815  50.6200228  23.9530219  36.3576250  39.4954603
  23.9300907  36.4563937  38.5436486  24.2630855  37.2041401  39.8171769
  26.6117597  38.4152405  43.6101218  27.5660850  38.3836347  43.5431149
  26.4130120  37.9543029  44.4251443  27.2016979  36.9853521  46.1772015
  28.0209868  37.4797600  46.2006852  27.4753786  36.0685489  46.1489583
  36.9583575  29.3764273  35.5399971  36.0709430  29.6613924  35.3220165
  37.3737564  29.2158037  34.6927248  40.3098111  29.4010794  39.2554310
  41.0858501  29.8907247  39.5278927  39.5846245  29.8268849  39.7126179
  42.7470670  30.1138414  40.3128251  43.3415161  29.8734150  39.6021559
  42.8197253  29.3945544  40.9401787  24.9667825  43.9572025  40.6271415
  24.8322293  43.1972425  40.0609413  24.5499888  44.6812924  40.1600204
  36.1026788  39.1408948  29.6347991  36.8062639  39.3458951  30.2505646
  35.3789437  39.7085710  29.8997074  36.9324599  34.8918809  35.7550261
  36.8759800  35.3487361  34.9157893  37.4852941  34.1309494  35.5773104
  40.7429405  30.6808541  36.5800380  40.4866339  30.2805177  37.4108588
  40.1182273  31.3952335  36.4550519  45.0541742  33.4204614  39.0871672
  44.4941300  33.4897804  39.8603234  44.4485246  33.2445599  38.3671168
  28.1236951  44.8541342  40.8389858  28.0069335  45.7986774  40.7368548
  27.3029398  44.5514903  41.2275657  38.0113486  39.5791477  31.6846451
  38.8459090  39.1472676  31.5023926  37.8497829  39.4073491  32.6123345
  37.6659378  36.0823591  33.0502790  37.6108182  35.9167862  32.1091234
  37.0405433  36.7899623  33.2064980  22.4551893  31.3191655  46.8764212
  23.1010757  30.8090609  47.3651437  22.2469044  32.0560337  47.4507637
  29.1491465  45.5069603  44.0545786  30.0518712  45.5393214  44.3712281
  28.9228836  44.5770054  44.0692122  30.9045067  44.2600590  40.7155865
  29.9540698  44.2602452  40.6020237  31.2077554  43.5133325  40.1991900
  34.7907623  22.1774476  36.8834045  34.0240019  21.6232963  37.0290728
  35.2018328  22.2496345  37.7448197  26.7949384  28.4659272  50.9739226
  27.6580846  28.1096077  51.1842551  26.2214795  28.1273167  51.6614631
  39.3074283  51.9024033  37.7060043  38.7439148  51.8113970  36.9376331
  39.1926678  51.0823937  38.1862536  38.8129469  52.6584138  33.4161642
  39.5860345  52.1113125  33.2774518  39.1654868  53.5228387  33.6276104
  41.1495747  48.8176804  31.0480092  41.4021267  48.2958325  30.2863555
  40.2120306  48.6542949  31.1506776  46.1939029  47.8212582  38.8554836
  46.9802119  47.4032005  38.5045253  46.4577734  48.7258674  39.0236484
  40.8692035  50.7204910  33.2504467  40.7528293  50.0449813  33.9185552
  40.9794295  50.2337284  32.4336620  43.2123576  50.1815057  36.9551156
  42.8481784  49.6545678  37.6664078  44.0690692  49.7913526  36.7817642
  42.8529063  45.2104957  31.9512505  43.0203466  46.0785193  32.3182976
  42.6626232  45.3732238  31.0273794  39.0616878  50.1235732  39.6515040
  38.1367374  49.9911946  39.8592732  39.3101291  50.9029952  40.1484982
  42.8318284  47.6662614  32.9359172  42.7117909  48.1119665  33.7744652
  42.1370873  48.0147932  32.3772710  36.4225689  49.7669006  40.4858829
  36.5518070  50.0203485  41.3998241  35.7423140  50.3596714  40.1663484
  48.5303350  48.1384087  33.7639506  49.4421206  48.3711474  33.5887203
  48.0212997  48.7221132  33.2014584  45.8739325  44.3142123  42.0129367
  45.0123804  44.6123377  42.3046104  45.9001760  44.5312522  41.0810399
  42.6900894  52.8584314  38.4203172  43.1539240  53.1372017  37.6307795
  42.4257693  51.9567758  38.2376263  41.6269781  48.9807466  35.2292738
  42.3293824  49.4328510  35.6966664  41.2950409  48.3391285  35.8572631
  35.3695114  47.2391019  40.5309871  34.5794168  47.4948547  40.0549982
  35.8606362  48.0539357  40.6361912  37.3209860  47.6035598  37.4893348
  36.5241023  47.7154292  38.0076843  37.0935452  47.9422250  36.6234238
  33.6532817  47.4921509  42.9624862  33.9040856  48.3768519  43.2282438
  34.1892366  47.3126111  42.1899954  36.3192943  53.3123847  35.8782768
  36.8317463  54.1067097  36.0288333  36.9715655  52.6150137  35.8116369
  38.1287827  56.4289603  37.9605521  38.3054456  57.3507568  37.7726505
  38.9244661  56.1148022  38.3899901  46.2156009  39.3178971  43.8353736
  45.8720278  40.2080612  43.7592847  46.5834971  39.1280628  42.9723321
  34.2841859  51.6412501  36.6542338  35.1217081  52.0509510  36.4376046
  34.4620127  50.7011943  36.6242532  46.1806291  49.3087582  32.3426171
  45.6652915  50.0792186  32.5814559  45.9083600  48.6352718  32.9659233
  43.7653402  44.1537283  37.4011410  42.9094999  43.7644133  37.2217048
  44.1780354  44.2329243  36.5411195  45.2952549  41.6883626  41.8002969
  44.7917345  41.6513761  40.9870775  45.5883156  42.5976369  41.8599626
  41.5395435  41.7722356  40.8069151  42.4048432  41.5765164  40.4475041
  41.6072944  41.5432707  41.7338508  45.9692595  47.1814674  34.1685953
  45.6642730  47.4960823  35.0196096  46.9223037  47.2596094  34.2113286
  39.1457754  44.0024564  38.1785518  39.7201506  43.7799745  37.4458711
  39.7328737  44.0713258  38.9314119  39.4727341  46.0329025  32.1981403
  38.6364653  46.3703711  32.5190678  39.3332111  45.8978004  31.2608540
  41.4480422  40.8765812  36.9060587  40.7944834  40.5614830  36.2817202
  41.4060896  40.2541553  37.6320410  42.5591627  51.1585108  28.8213880
  41.6518688  50.9274361  29.0205029  43.0562659  50.3622727  29.0087861
  44.6818162  47.3647746  41.2308235  43.7640724  47.5862693  41.0729923
  45.0978306  47.4394056  40.3719942  45.4653210  48.7639162  36.3610915
  46.2125029  49.2760559  36.0518037  45.7344799  48.4423214  37.2215309
  43.7379860  51.2597702  33.3437870  42.8291079  50.9756735  33.4410339
  43.7674944  51.6796781  32.4841176  47.9132047  45.7996278  38.3429705
  47.1754804  45.2873664  38.6739947  48.1658821  45.3596660  37.5312982
  48.0143674  38.5772530  38.9371474  48.3202551  37.7169893  38.6497389
  48.7396279  39.1690150  38.7370468  34.3068030  48.9803216  37.3253072
  34.1092430  48.3872577  36.6004138  33.7514694  48.6755427  38.0429011
  42.2864754  48.8726323  39.4447665  42.3413364  47.9200159  39.3690142
  41.4755956  49.0285762  39.9288963  43.4355948  52.8006446  30.6825948
  42.9975378  52.0842305  30.2231586  44.1766389  53.0282561  30.1211040
  40.2257114  47.4903383  37.2038044  39.4124980  47.7897553  37.6103236
  40.7216108  47.0959071  37.9212526  39.7171189  45.0621738  42.8199279
  40.3570568  44.9210497  42.1222242  38.8848719  44.7756252  42.4437881
  40.4931493  54.3624169  38.9334271  41.2872091  53.8674489  38.7316846
  39.7823185  53.8342032  38.5701977  36.8014256  48.5067250  35.0094024
  35.8711844  48.4451706  35.2263986  36.8971728  47.9843203  34.2130665
  36.7199805  45.0322063  37.5972266  36.9806623  45.9467396  37.4881426
  37.5416978  44.5646506  37.7468878  39.3465721  45.8776252  29.3979310
  38.4695188  45.7565053  29.0341557  39.8223474  45.0862330  29.1458199
  30.8667862  50.6653412  39.4920817  31.5538901  50.3515142  38.9041833
  30.7115990  51.5694776  39.2188069  35.6702584  45.5543608  43.9205841
  35.5860772  44.9469278  43.1856251  34.8485290  46.0452627  43.9215337
  45.8426298  44.0397172  39.2876036  46.3394997  43.2867134  38.9677106
  45.0713279  44.0761488  38.7219245  42.4261266  46.1814555  39.0147721
  42.0559054  45.6285595  39.7028626  42.9220359  45.5772688  38.4622721
  48.2845292  41.0066765  41.4355395  47.3708372  41.2370992  41.6037602
  48.7138394  41.0905209  42.2869427  30.4435838  48.7454005  41.7638284
  30.4819937  48.2117596  42.5575402  29.9376130  48.2189211  41.1449262
  37.8226600  43.5918546  45.2600827  37.8867926  44.4533376  44.8478224
  37.7593720  42.9792547  44.5273185  34.0744415  47.4718107  34.8392216
  34.3697856  46.5628786  34.7859269  33.1732451  47.4505847  34.5173218
  37.6038662  45.5474104  40.8219764  36.8825248  46.1610072  40.6827238
  38.3931918  46.0831869  40.7436410  35.8032257  45.1532205  34.9631541
  35.4744963  44.2729584  34.7806647  36.1571628  45.0979874  35.8507930
  38.9174080  45.4405175  35.3307019  39.2570153  45.9691096  34.6085627
  39.3646200  45.7785581  36.1065585  42.2633993  40.9091538  43.2337410
  43.0860062  40.4352016  43.1116300  42.5072056  41.6882022  43.7336096
  40.9042227  43.9379796  33.5300311  41.6250590  44.3161049  33.0264028
  40.2807531  44.6568673  33.6335289  45.0473350  44.6424945  34.4658644
  45.2636964  45.5249583  34.1647472  44.5667417  44.2511159  33.7364286
  39.7872571  47.6010658  41.0429388  39.6417152  47.9150962  41.9353670
  39.3097775  48.2195559  40.4900287  41.6468954  44.5913206  41.0910278
  41.6330523  43.6954300  40.7542576  42.3641382  44.5983870  41.7248564
  41.0505850  43.4727587  36.3597848  41.1721761  42.5444233  36.5588735
  40.7607893  43.4866273  35.4476163  43.9197041  41.1582497  39.4964568
  43.9418737  41.2221830  38.5416547  44.3365100  40.3187006  39.6905074
  35.4940869  57.1551328  38.9057601  36.3198889  56.8555100  38.5256244
  35.1434921  56.3858950  39.3547390  33.6949474  55.0737654  39.8646535
  32.8581382  54.6459829  39.6830536  33.6673120  55.2670098  40.8017326
  40.0235909  55.0581719  34.4513735  40.1724030  55.7417184  33.7980408
  40.8302353  55.0386809  34.9663191  37.7788542  51.0846897  35.4574804
  37.5334584  50.1809227  35.6555014  37.9484457  51.0864048  34.5154282
  37.0484190  46.8175255  32.9560965  36.3553435  46.8919610  32.3001001
  36.8035942  46.0535598  33.4782482  45.7197846  38.3770856  40.3600456
  45.9999600  37.7094045  40.9860883  46.5048453  38.5699952  39.8475120
  43.9078113  48.8890663  29.2641535  44.8537218  48.7596871  29.3329953
  43.5292358  48.1505325  29.7410963  49.8799998  40.5546669  39.2268427
  49.6824819  40.2461757  40.1111759  50.4899703  41.2808308  39.3566357
  42.0921030  46.8140639  29.1996420  41.1852486  46.5173752  29.2759134
  42.3697011  46.5170457  28.3330706  33.0098971  48.1347002  39.6495467
  32.6901755  47.2812311  39.3569841  32.4632399  48.3495581  40.4053434
  43.7083096  41.3577529  35.3540662  42.8983824  41.0124614  35.7295908
  44.3967513  41.0485072  35.9428273  45.6373644  40.4355576  36.9764958
  46.1904683  40.8551029  37.6354981  45.8743731  39.5091324  37.0187914
  40.8619815  43.6727574  29.3408399  41.7238979  43.9982473  29.6004217
  41.0470159  42.8859070  28.8281465  32.8787231  51.7549914  41.6188588
  32.1850702  51.3403867  41.1058543  33.6260222  51.7970450  41.0222007
  49.0152451  42.5456101  36.4843622  48.4351121  43.2040905  36.1021675
  48.7488384  41.7233445  36.0731040  47.4656018  41.9461158  38.6864943
  47.9655796  42.0577693  37.8779262  48.1091626  41.6422211  39.3265751
  34.7923973  51.6868168  39.4954603  34.7694661  51.7855855  38.5436486
  35.1024610  52.5333318  39.8171769  47.7977329  44.7056191  35.5399971
  46.9103185  44.9905842  35.3220165  48.2131319  44.5449954  34.6927248
  51.1491866  44.7302712  39.2554310  51.9252256  45.2199165  39.5278927
  50.4240000  45.1560766  39.7126179  47.7718353  50.2210727  35.7550261
  47.7153555  50.6779278  34.9157893  48.3246696  49.4601412  35.5773104
  51.5823159  46.0100459  36.5800380  51.3260093  45.6097095  37.4108588
  50.9576027  46.7244253  36.4550519  41.8149258  40.9123617  32.6288108
  41.8027928  41.8565457  32.7856379  42.7072680  40.7293763  32.3347570
  45.6301377  37.5066394  36.8834045  44.8633773  36.9524881  37.0290728
  46.0412082  37.5788263  37.7448197  17.6286775  -1.7497680  24.4305350
  17.0651640  -1.8407743  23.6621638  17.5139170  -2.5697775  24.9107842
  15.1751207  -0.2546488  27.2689570  15.9672499  -0.5955664  26.8535870
  15.4147857  -0.1451513  28.1891724  23.2086334   1.9173288  19.7419815
  22.5574314   2.5027368  19.3553828  24.0030697   2.4479483  19.8014852
  17.1341961  -0.9937575  20.1406949  17.9072837  -1.5408588  20.0019825
  17.4867360  -0.1293326  20.3521410  18.9727004   0.3338807  33.3473848
  18.6816870   1.2384438  33.2320515  19.6083988   0.3755335  34.0617918
  19.8983210  -2.2884344  29.9375208  20.4946783  -2.5128322  29.2232171
  19.9558182  -3.0299599  30.5400656  24.6861599  -0.3936280  20.2788799
  24.0507432  -0.3201654  20.9909704  24.3559005   0.1957319  19.6007878
  19.1904528  -2.9316803  19.9749774  19.0740786  -3.6071900  20.6430858
  19.3006788  -3.4184429  19.1581927  23.9316889   0.0200223  30.3423642
  23.6317612   0.9225262  30.2339449  23.5867948  -0.2467594  31.1944795
  18.9137669   6.7844543  23.3094610  18.8361698   7.7352368  23.3883090
  18.3099312   6.4390416  23.9669536  19.6601271  -3.2342138  35.5273944
  20.4015955  -2.6957094  35.2508767  18.9538256  -2.6075849  35.6845495
  25.1356610  -1.0912998  34.1246105  25.5439966  -1.5330587  33.3800737
  24.4133872  -1.6660370  34.3780298  25.4585425  -0.5311807  27.8798394
  24.8294287  -0.3666093  27.1774462  25.0711087  -0.1170197  28.6509358
  29.3374657   0.4042631  25.2342758  28.6525695   0.7841532  24.6839791
  29.4218506   1.0137958  25.9674705  21.0113387  -0.7937399  25.1448479
  21.4751732  -0.5149696  24.3553102  20.7470185  -1.6953954  24.9621570
  17.9037468  -1.2465917  28.0828242  18.4738825  -0.8178649  27.4445727
  18.4945580  -1.5283333  28.7812428  27.7071416   0.9274545  30.0060459
  28.5288860   0.5254733  29.7243140  27.7033819   0.8242779  30.9576574
  21.4728020   0.4758589  32.1621169  21.5372452   0.9378996  32.9979341
  20.7638944  -0.1544046  32.2903479  21.1876037   2.1426696  22.0300149
  21.0521712   2.9878232  22.4584997  21.7285850   2.3445974  21.2666083
  14.6405435  -0.3397866  22.6028075  15.1529955   0.4545384  22.7533639
  15.2928148  -1.0371575  22.5361676  16.4500320   2.7767890  24.6850828
  16.6266948   3.6985855  24.4971812  17.2457153   2.4626310  25.1145207
  22.8144514   2.7650263  36.1600491  22.3708368   1.9786641  35.8421396
  23.4761727   2.9529413  35.4944382  17.5731635   4.2946064  30.6861170
  18.1239060   4.1663128  29.9138164  16.7343111   4.5940953  30.3356063
  24.9125752   3.0453063  34.1881893  24.8944227   3.8661944  33.6962162
  25.8345672   2.9207138  34.4132034  21.3698806   0.5597192  35.0305401
  21.9027143  -0.2014520  34.8004709  20.8412887   0.2670844  35.7729556
  22.7351519  -0.3116816  22.5424213  22.2072880  -1.0464056  22.2297451
  22.2339021   0.4657861  22.2964181  20.8804119  -2.4936605  15.5459186
  19.9731181  -2.7247352  15.7450335  21.3775151  -3.2898986  15.7333168
  23.7872198   6.2160902  18.4655872  23.1133897   6.5192599  19.0740830
  24.1738020   7.0189982  18.1161329  22.0592352  -2.3924010  20.0683176
  21.1503572  -2.6764978  20.1655646  22.0887436  -1.9724932  19.2086483
  27.2911620   1.2182579  23.8374344  26.8373947   0.3773489  23.8939534
  26.6605586   1.8543977  24.1749124  25.7344559   3.0559076  24.7724162
  26.0267533   3.6164133  24.0536528  26.2443180   3.3487637  25.5277321
  21.7568440  -0.8515267  17.4071255  21.3187870  -1.5679408  16.9476892
  22.4978881  -0.6239152  16.8456346  20.6978184   3.8339427  25.8617615
  20.6554363   4.0600273  24.9326147  21.6140883   3.6002801  26.0103416
  18.8143985   0.7102456  25.6579578  19.6084583   0.2152776  25.4562153
  18.1035677   0.1820319  25.2947283  23.6338829   3.0920551  30.0091946
  23.6875852   3.6611488  30.7769661  22.7653611   3.2622436  29.6445983
  25.8241593  -0.3151099  36.5832611  25.6727099  -0.5440548  35.6662695
  25.8146272   0.6419502  36.5963956  22.5926929  -2.7419187  31.5678877
  23.5218989  -2.5908027  31.3947845  22.1717959  -2.6535166  30.7127524
  21.3915261   1.2831478  29.3377415  21.2526347   0.9150262  30.2103353
  20.6029857   1.7979117  29.1661373  21.9863413   6.3840574  20.6802952
  22.1615169   5.9128618  21.4948574  21.2996201   7.0106341  20.9084212
  22.9420476   0.6613081  26.7266253  22.6070309   0.6213851  27.6223903
  22.4424422  -0.0042203  26.2536663  27.5333799   2.7168023  34.6609093
  27.4746346   2.0327243  33.9939676  27.9353318   3.4587013  34.2089719
  16.5524498   9.5329937  27.4542812  16.7921096  10.1648461  28.1321830
  15.7093695   9.1817977  27.7408171  27.5351207   0.6807607  32.8923072
  26.6477985   0.3433529  33.0149471  28.1049758  -0.0509362  33.1291838
  21.0652360   5.3409060  29.8584316  20.9922532   6.1464031  30.3703620
  20.6229753   5.5401025  29.0332337  20.8542140   4.5780830  23.3687137
  20.0709662   5.1202510  23.4625362  21.5534885   5.0954809  23.7681378
  23.5251044   5.2395894  32.0142474  24.2379016   5.8743358  31.9418376
  23.0341072   5.3359760  31.1982476  25.2468571  -0.8552854  23.5859766
  24.3124849  -0.7351391  23.4164470  25.4245239  -1.7580387  23.3219776
  18.5762957   2.9890337  32.8348045  19.2772417   3.6226820  32.9877439
  18.1058072   3.3305069  32.0743684  26.7017353   1.3308287  21.1195952
  26.9777197   1.2164881  22.0289826  25.8321852   0.9325772  21.0808125
  23.3371417   5.5794638  24.7628766  23.5193812   4.7616294  25.2256518
  24.1604403   5.7962330  24.3253656  23.6713583   4.5062823  22.0243814
  24.2001349   3.9955277  21.4113976  23.9341802   4.1905353  22.8889347
  14.1730675   2.5226692  29.7679148  14.7584112   1.7770380  29.9007052
  13.9755514   2.8330649  30.6515812  17.0269330   5.5577939  24.7841590
  16.3579706   6.0424067  24.3005630  16.8882200   5.8047160  25.6984969
  21.1674599   7.5921683  31.3824249  21.7192907   7.7553305  32.1473334
  21.5080792   8.1826121  30.7104273  26.0185473   2.4182941  37.2372903
  26.5625377   3.0312899  36.7427858  25.4372318   2.9762519  37.7539916
  24.3042986   5.5403659  28.3687931  24.1794126   4.7393398  27.8598876
  24.9622077   6.0349852  27.8801901  26.3677895   3.3412679  29.9967481
  25.4208230   3.2218030  29.9245808  26.7160668   2.4535177  30.0793742
  23.3724328   3.1365395  26.1971833  23.2249290   2.2082102  26.3779403
  24.1977821   3.1585486  25.7128908  26.9758450   3.9593954  27.2836706
  27.9004997   3.7536815  27.1461157  26.8073753   3.7110355  28.1926047
  26.7653766   4.4779621  22.6398797  26.9390644   3.9126044  21.8872650
  27.2582657   5.2780516  22.4578287  27.7528939   3.7946385  19.7395696
  28.4479843   4.4153078  19.9583010  28.0952089   2.9441737  20.0148073
  29.6520362   1.2446091  21.2683026  30.1771686   1.5833364  20.5432346
  29.5642714   0.3093106  21.0846161  21.3140410   5.1580165  33.3972903
  21.6227537   4.9129311  34.2695603  22.1115892   5.3626803  32.9091773
  21.3361022   7.3118074  25.6278280  20.8966013   6.8194453  26.3211136
  22.0869139   6.7691042  25.3870355  13.8153361   3.5029615  25.6302908
  14.6411381   3.2033387  25.2501551  13.4647413   2.7337238  26.0792696
  18.7834895   2.8556083  27.7000581  18.1614904   2.1926788  27.4002809
  19.4539761   2.8817215  27.0174229  12.0161966   1.4215942  26.5891841
  11.1793875   0.9938116  26.4075842  11.9885612   1.6148385  27.5262632
  29.3414268   1.8778995  36.5734224  28.5509811   1.8603133  36.0338724
  29.1047622   2.4167288  37.3283261  18.3448401   1.4060007  21.1759042
  18.4936522   2.0895471  20.5225714  19.1514845   1.3865097  21.6908497
  30.9630340   1.1468402  34.1308974  30.6715148   1.5098383  34.9672435
  30.3502471   0.4335411  33.9522306  21.8443807   3.9008137  18.6470789
  21.2717774   4.5198324  18.1941261  22.4176601   4.4507499  19.1810711
  25.0641067   4.1845287  19.7779371  25.9971740   4.1190849  19.9812247
  24.9764280   5.0201554  19.3193904  27.6929083   3.5011158  16.7383319
  27.6142715   3.1671021  17.6319077  28.5138750   3.9932925  16.7374791
  22.1129298  -0.7113304  37.4487499  23.0332307  -0.5334705  37.6427545
  22.0778881  -1.6557259  37.2967198  19.8450506  -3.7981925  38.2978090
  19.3617588  -2.9981565  38.5041979  19.9311445  -3.7873980  37.3445534
  15.7723843   0.0922610  30.3346524  16.7267097   0.0606552  30.2676456
  15.5736367  -0.3686766  31.1496750  16.3623226  -1.3376274  32.9017322
  17.1816115  -0.8432195  32.9252159  16.6360033  -2.2544306  32.8734889
  14.1274072   5.6342229  27.3516722  13.9928540   4.8742630  26.7854720
  13.7106134   6.3583129  26.8845511  25.2633035   0.8179153  16.3593297
  25.9668885   1.0229155  16.9750953  24.5395684   1.3855915  16.6242381
  17.2843198   6.5311546  27.5635165  17.1675582   7.4756979  27.4613855
  16.4635644   6.2285108  27.9520964  27.1719733   1.2561682  18.4091757
  28.0065337   0.8242881  18.2269232  27.0104076   1.0843696  19.3368652
  24.1411532   0.0642707  39.1001659  25.0102692   0.2383360  38.7388294
  23.6618283   0.8837124  38.9777389  18.3097712   7.1839808  30.7791093
  19.2124959   7.2163419  31.0957588  18.0835082   6.2540259  30.7937429
  20.0651314   5.9370795  27.4401172  19.1146945   5.9372657  27.3265544
  20.3683800   5.1903529  26.9237206  35.8004008  11.7731333  28.5046934
  36.4382418  11.6538081  27.8010274  35.6824851  12.7212177  28.5634886
  32.6093714  11.7258761  28.4408459  32.2712226  11.6099826  27.5528994
  33.4783482  11.3249926  28.4209465  28.4680530  13.5794238  24.4305350
  27.9045395  13.4884175  23.6621638  28.3532925  12.7594142  24.9107842
  33.0913497  12.8793613  34.3994664  33.0802138  12.4846411  33.5275168
  33.2534136  12.1459686  34.9928436  26.0144962  15.0745429  27.2689570
  26.8066254  14.7336254  26.8535870  26.2541612  15.1840404  28.1891724
  34.0480088  17.2465206  19.7419815  33.3968068  17.8319286  19.3553828
  34.8424451  17.7771400  19.8014852  27.9735716  14.3354343  20.1406949
  28.7466592  13.7883330  20.0019825  28.3261114  15.1998592  20.3521410
  29.8120758  15.6630725  33.3473848  29.5210624  16.5676356  33.2320515
  30.4477742  15.7047253  34.0617918  30.7376965  13.0407573  29.9375208
  31.3340537  12.8163596  29.2232171  30.7951937  12.2992319  30.5400656
  30.3101993  10.4947009  17.7725399  30.5627514   9.9728530  17.0108862
  29.3726552  10.3313154  17.8752083  35.3545276   9.4982787  25.5800142
  36.1408365   9.0802210  25.2290559  35.6183981  10.4028879  25.7481791
  35.5255354  14.9355637  20.2788799  34.8901187  15.0090264  20.9909704
  35.1952760  15.5249236  19.6007878  40.7553703   9.4358020  26.4833121
  41.4878875   8.8657237  26.7170950  39.9993059   9.0479621  26.9239626
  30.0298282  12.3975115  19.9749774  29.9134540  11.7220018  20.6430858
  30.1400542  11.9107489  19.1581927  32.3729823  11.8585262  23.6796463
  32.0088030  11.3315883  24.3909385  33.2296939  11.4683731  23.5062949
  38.2779124   3.1479594  30.9427729  37.9462448   4.0175005  30.7188944
  37.6824737   2.8315878  31.6221760  32.0135310   6.8875162  18.6757812
  32.1809712   7.7555398  19.0428283  31.8232479   7.0502443  17.7519101
  34.7710643  15.3492140  30.3423642  34.4711366  16.2517179  30.2339449
  34.4261703  15.0824324  31.1944795  28.2223125  11.8005937  26.3760346
  27.2973621  11.6682151  26.5838038  28.4707538  12.5800157  26.8730289
  38.1707787   7.8674681  28.0221079  37.2624664   7.7990089  27.7279840
  38.1195383   8.3446626  28.8502905  31.9924531   9.3432819  19.6604478
  31.8724156   9.7889870  20.4989959  31.2977119   9.6918137  19.1018017
  25.5831936  11.4439211  27.2104135  25.7124317  11.6973690  28.1243547
  24.9029387  12.0366919  26.8908791  32.2448653   9.2864326  35.9655977
  31.4681987   9.8458246  35.9558841  32.8839216   9.7721109  36.4870847
  40.0369433   6.0691119  29.7998953  39.3943814   6.3623652  29.1538748
  39.5324362   5.9544039  30.6052150  37.6909597   9.8154292  20.4884813
  38.6027453  10.0481679  20.3132510  37.1819244  10.3991336  19.9259891
  30.4995025  12.0949780  35.5273944  31.2409709  12.6334824  35.2508767
  29.7932011  12.7216068  35.6845495  35.9750365  14.2378920  34.1246105
  36.3833721  13.7961331  33.3800737  35.2527626  13.6631548  34.3780298
  32.3281435   9.1751527  31.4979662  33.1742630   9.5990940  31.6414311
  32.2680072   8.5185151  32.1918225  36.2979179  14.7980111  27.8798394
  35.6688042  14.9625825  27.1774462  35.9104841  15.2121720  28.6509358
  40.1768411  15.7334549  25.2342758  39.4919449  16.1133450  24.6839791
  40.2612261  16.3429875  25.9674705  35.4780880   6.8355895  33.1560836
  35.2341812   7.5897956  32.6195111  35.7540811   7.2141243  33.9908083
  37.4319343  13.3794508  31.8338101  37.6436238  14.0226267  31.1572482
  37.3849091  12.5456824  31.3660031  35.0345572   5.9912328  28.7374673
  34.1730051   6.2893582  29.0291411  35.0608006   6.2082727  27.8055706
  31.8507141  14.5354519  25.1448479  32.3145487  14.8142222  24.3553102
  31.5863939  13.6337963  24.9621570  28.7431222  14.0826000  28.0828242
  29.3132579  14.5113269  27.4445727  29.3339334  13.8008585  28.7812428
  30.7876027  10.6577671  21.9538044  31.4900071  11.1098715  22.4211971
  30.4556656  10.0161490  22.5817937  29.2356389   9.2489428  36.3289254
  28.6055049   9.9305709  36.5624650  29.1292477   9.1372509  35.3842392
  24.5301361   8.9161224  27.2555178  23.7400415   9.1718752  26.7795288
  25.0212609   9.7309562  27.3607218  38.5465171  16.2566463  30.0060459
  39.3682615  15.8546650  29.7243140  38.5427574  16.1534697  30.9576574
  26.4816107   9.2805803  24.2138654  25.6847270   9.3924497  24.7322150
  26.2541699   9.6192455  23.3479545  32.3121774  15.8050506  32.1621169
  32.3766207  16.2670914  32.9979341  31.6032698  15.1747871  32.2903479
  22.8139064   9.1691714  29.6870169  23.0647103  10.0538724  29.9527745
  23.3498613   8.9896316  28.9145260  46.6371164  12.6005211  26.3545430
  45.8834872  12.0312610  26.1989434  46.7718705  12.5667876  27.3016065
  28.5137132   3.5510194  38.6914505  28.1204077   2.9976392  39.3662149
  29.3303272   3.8620772  39.0821022  25.4799189  14.9894052  22.6028075
  25.9923710  15.7837302  22.7533639  26.1321902  14.2920342  22.5361676
  31.4305093   4.9668073  36.2834761  32.1714806   5.5675226  36.2039224
  31.6623015   4.2245710  35.7252804  26.5746431  10.1524440  34.5612991
  26.4599946   9.2509697  34.8620090  25.7190948  10.3988137  34.2097807
  33.6538268  18.0942180  36.1600491  33.2102122  17.3078559  35.8421396
  34.3155482  18.2821331  35.4944382  35.7519506  18.3744980  34.1881893
  35.7337982  19.1953861  33.6962162  36.6739426  18.2499055  34.4132034
  32.2092561  15.8889110  35.0305401  32.7420897  15.1277398  34.8004709
  31.6806642  15.5962761  35.7729556  23.4448106  13.3182706  23.3787645
  24.2823328  13.7279714  23.1621353  23.6226374  12.3782148  23.3487839
  35.3412538  10.9857787  19.0671478  34.8259162  11.7562391  19.3059865
  35.0689847  10.3122923  19.6904539  32.9259649   5.8307488  24.1256716
  32.0701246   5.4414338  23.9462355  33.3386601   5.9099448  23.2656502
  34.4558796   3.3653831  28.5248276  33.9523591   3.3283966  27.7116081
  34.7489403   4.2746574  28.5844933  30.7001682   3.4492561  27.5314458
  31.5654679   3.2535369  27.1720347  30.7679191   3.2202912  28.4583815
  40.3146812  13.7390141  21.0024651  39.5376255  13.4001301  20.5579814
  40.9938293  13.7442765  20.3279617  35.1298841   8.8584879  20.8931259
  34.8248977   9.1731028  21.7441402  36.0829284   8.9366299  20.9358592
  33.5745273  15.0175102  22.5424213  33.0466635  14.2827862  22.2297451
  33.0732776  15.7949779  22.2964181  38.5538119  13.2124123  27.6591259
  37.8961794  13.9023384  27.7471388  39.3578518  13.6020555  28.0025246
  28.3064001   5.6794768  24.9030825  28.8807753   5.4569950  24.1704018
  28.8934983   5.7483463  25.6559426  37.3643578  11.5668495  25.7095201
  37.8775460  12.1998487  26.2116911  38.0144802  10.9669691  25.3438561
  28.6333588   7.7099229  18.9226710  27.7970900   8.0473916  19.2435985
  28.4938358   7.5748209  17.9853847  30.6086669   2.5536017  23.6305894
  29.9551081   2.2385035  23.0062509  30.5667143   1.9311758  24.3565717
  31.7197873  12.8355312  15.5459186  30.8124935  12.6044566  15.7450335
  32.2168905  12.0392932  15.7333168  34.6265952  21.5452820  18.4655872
  33.9527651  21.8484516  19.0740830  35.0131774  22.3481900  18.1161329
  33.8424409   9.0417951  27.9553542  32.9246970   9.2632898  27.7975230
  34.2584553   9.1164261  27.0965249  34.6259457  10.4409367  23.0856222
  35.3731276  10.9530764  22.7763344  34.8951046  10.1193419  23.9460616
  32.8986107  12.9367907  20.0683176  31.9897326  12.6526940  20.1655646
  32.9281191  13.3566986  19.2086483  38.1305374  16.5474497  23.8374344
  37.6767701  15.7065407  23.8939534  37.4999341  17.1835895  24.1749124
  37.0738294   7.4766483  25.0675011  36.3361051   6.9643869  25.3985254
  37.3265067   7.0366864  24.2558288  23.4674277  10.6573421  24.0498378
  23.2698677  10.0642782  23.3249445  22.9120941  10.3525632  24.7674317
  31.4471001  10.5496528  26.1692972  31.5019611   9.5970364  26.0935448
  30.6362203  10.7055967  26.6534270  32.5962195  14.4776651  17.4071255
  32.1581625  13.7612510  16.9476892  33.3372636  14.7052766  16.8456346
  29.3863361   9.1673588  23.9283350  28.5731226   9.4667758  24.3348543
  29.8822355   8.7729276  24.6457833  34.9837573   9.6315412  32.7598244
  35.3386960   9.8586885  33.6192710  35.6309704   9.9633789  32.1375500
  40.7135309  12.7533848  23.4647573  40.5753208  12.9435444  22.5368763
  40.3571528  13.5153231  23.9215625  28.8777436   6.7391943  29.5444585
  29.5176815   6.5980702  28.8467549  28.0454966   6.4526457  29.1683187
  40.7404689  14.8210375  28.4758845  41.1741196  14.7285664  29.3241899
  41.4536270  14.7967875  27.8378861  29.6537739  16.0394374  25.6579578
  30.4478338  15.5444694  25.4562153  28.9429432  15.5112237  25.2947283
  34.4732584  18.4212469  30.0091946  34.5269606  18.9903405  30.7769661
  33.6047365  18.5914354  29.6445983  25.9620503  10.1837455  21.7339331
  25.0318091  10.1221911  21.9509293  26.0577975   9.6613408  20.9375972
  25.8806052   6.7092268  24.3217572  26.1412869   7.6237601  24.2126733
  26.7023224   6.2416711  24.4714185  27.3530977   8.1230025  31.4916397
  28.0254031   7.9147387  30.8429046  26.5260764   7.9252111  31.0521629
  41.6020239  14.8634076  31.0091730  41.7956129  15.7679886  31.2551005
  41.5020857  14.4041495  31.8430315  33.2556549   4.7491966  33.5082058
  32.6084464   5.4481916  33.4146534  34.0257565   5.1828110  33.8758306
  36.6635347  15.0140818  36.5832611  36.5120854  14.7851370  35.6662695
  36.6540027  15.9711420  36.5963956  33.4320684  12.5872731  31.5678877
  34.3612744  12.7383891  31.3947845  33.0111714  12.6756752  30.7127524
  33.7814231  15.9904998  26.7266253  33.4464063  15.9505768  27.6223903
  33.2818176  15.3249714  26.2536663  27.7558475  11.3972628  32.2518834
  27.6178273  10.6652867  32.8530373  28.6663398  11.3081528  31.9703022
  36.7173422  13.3361033  17.0003312  36.1002593  12.6107861  16.9036365
  36.2489911  14.0970393  16.6570387  30.3840775  11.1092588  31.7402514
  31.0940394  10.4685780  31.6989132  30.3410083  11.3605482  32.6628694
  38.3727554  18.0459941  34.6609093  38.3140100  17.3619161  33.9939676
  38.7747072  18.7878931  34.2089719  29.0969709   8.0957805  33.5598153
  28.5607066   7.6448544  34.2119749  28.5086418   8.2303714  32.8168617
  28.5071968   7.5546457  16.1224617  27.6301435   7.4335258  15.7586863
  28.9829721   6.7632535  15.8703505  38.3744961  16.0099525  32.8923072
  37.4871740  15.6725447  33.0149471  38.9443512  15.2782556  33.1291838
  20.0274108  12.3423617  26.2166124  20.7145148  12.0285347  25.6287139
  19.8722237  13.2464981  25.9433375  24.8308830   7.2313813  30.6451148
  24.7467019   6.6239483  29.9101557  24.0091537   7.7222832  30.6460644
  35.0032544   5.7167377  26.0121343  35.5001244   4.9637339  25.6922413
  34.2319526   5.7531693  25.4464552  42.8562302  11.4207742  27.6539634
  42.8452178  12.3032458  27.2833567  41.9879681  11.0679293  27.4594171
  34.3644798  20.5687811  32.0142474  35.0772770  21.2035276  31.9418376
  33.8734827  20.6651677  31.1982476  36.0862325  14.4739064  23.5859766
  35.1518604  14.5940526  23.4164470  36.2638993  13.5711531  23.3219776
  31.5867513   7.8584760  25.7393027  31.2165301   7.3055800  26.4273933
  32.0826606   7.2542893  25.1868027  39.4734876  10.3156383  24.1209800
  39.9395329  11.1484375  24.0470103  39.9242377   9.8501365  24.8255059
  29.4156712  18.3182255  32.8348045  30.1166171  18.9518738  32.9877439
  28.9451827  18.6596986  32.0743684  37.5411107  16.6600205  21.1195952
  37.8170951  16.5456799  22.0289826  36.6715606  16.2617689  21.0808125
  37.4451539   2.6836970  28.1600701  36.5314619   2.9141197  28.3282908
  37.8744641   2.7675414  29.0114734  37.2157998  10.8726862  30.6600596
  36.5629448  11.1202770  30.0053048  37.5938378  10.0591000  30.3263073
  33.2645571  11.6146673  37.1466633  32.5886208  11.5140803  37.8169008
  34.0873205  11.4585887  37.6102630  25.0124430  17.8518610  29.7679148
  25.5977867  17.1062298  29.9007052  24.8149268  18.1622566  30.6515812
  19.6042084  10.4224210  28.4883591  19.6426184   9.8887801  29.2820709
  19.0982377   9.8959416  27.8694568  26.9832847   5.2688750  31.9846133
  27.0474173   6.1303581  31.5723531  26.9199967   4.6562752  31.2518492
  26.4585119   7.3411883  35.6319168  27.0857158   6.9588960  36.2456692
  25.6013038   7.1226085  35.9974860  36.8579228  17.7474858  37.2372903
  37.4019132  18.3604816  36.7427858  36.2766073  18.3054437  37.7539916
  23.2350662   9.1488312  21.5637522  23.5304103   8.2398991  21.5104576
  22.3338698   9.1276052  21.2418525  26.7644909   7.2244309  27.5465071
  26.0431495   7.8380276  27.4072544  27.5538165   7.7602074  27.4681717
  37.2071649  18.6704596  29.9967481  36.2601985  18.5509947  29.9245808
  37.5554422  17.7827094  30.0793742  29.5671223   4.5598735  33.8205723
  30.0905624   4.8061032  34.5832032  29.3483556   5.3918770  33.4008860
  24.9638504   6.8302410  21.6876848  24.6351210   5.9499789  21.5051953
  25.3177874   6.7750079  22.5753237  28.0780327   7.1175380  22.0552325
  28.4176399   7.6461301  21.3330934  28.5252447   7.4555786  22.8310892
  37.8152204  19.2885871  27.2836706  38.7398752  19.0828733  27.1461157
  37.6467508  19.0402272  28.1926047  30.7723768   5.5012430  31.5055393
  30.4320588   4.7020243  31.9076073  30.0662774   5.8014141  30.9332226
  31.4240239   2.5861743  29.9582716  32.2466309   2.1122221  29.8361607
  31.6678303   3.3652227  30.4581403  30.0648474   5.6150001  20.2545618
  30.7856836   5.9931254  19.7509335  29.4413778   6.3338878  20.3580596
  34.2079597   6.3195150  21.1903950  34.4243211   7.2019788  20.8892778
  33.7273664   5.9281364  20.4609592  28.9478818   9.2780863  27.7674695
  28.8023399   9.5921166  28.6598976  28.4704022   9.8965764  27.2145594
  30.8075201   6.2683411  27.8155584  30.7936770   5.3724505  27.4787882
  31.5247629   6.2754075  28.4493871  32.6601332   6.7020752  29.8608712
  32.4019110   7.6237822  29.8593042  32.1286372   6.3051186  30.5509176
  23.4224480  11.8186208  30.7062356  22.8777948  12.5946016  30.8382630
  24.3003830  12.1657012  30.5481478  30.2112097   5.1497792  23.0843155
  30.3328008   4.2214438  23.2834042  29.9214139   5.1636478  22.1721470
  33.0803287   2.8352702  26.2209874  33.1024984   2.8992035  25.2661854
  33.4971346   1.9957211  26.4150381  43.4586912  12.5707962  24.2589097
  43.9018058  11.8215287  23.8608220  42.5813422  12.5618098  23.8762829
  38.5922693  19.1238303  19.7395696  39.2873598  19.7444996  19.9583010
  38.9345843  18.2733654  20.0148073  24.2090502  10.9456104  33.5992513
  23.4672238  11.0938739  34.1857143  23.8883246  11.2064370  32.7359262
  40.4914116  16.5738009  21.2683026  41.0165440  16.9125281  20.5432346
  40.4036469  15.6385024  21.0846161  32.1534165  20.4872082  33.3972903
  32.4621291  20.2421229  34.2695603  32.9509647  20.6918721  32.9091773
  22.8555721  16.7507859  26.5891841  22.0187629  16.3230034  26.4075842
  22.8279366  16.9440303  27.5262632  29.6953177   6.6629789  37.2933087
  29.7441332   7.5391912  36.9110857  30.2375691   6.1207182  36.7204730
  40.1808022  17.2070912  36.5734224  39.3903566  17.1895051  36.0338724
  39.9441377  17.7459206  37.3283261  40.3005897  14.0563379  33.8866953
  40.3503902  13.8913386  34.8282476  40.1919821  13.1890638  33.4964834
  29.1842156  16.7351924  21.1759042  29.3330276  17.4187389  20.5225714
  29.9908599  16.7157014  21.6908497  37.5909660  10.0394307  35.2026260
  38.4919522   9.9000772  34.9110257  37.6657634  10.2048762  36.1424437
  31.9252465   7.4161161  34.0479446  31.0555774   7.7094727  33.7762034
  32.1611945   8.0001606  34.7686709  41.8024094  16.4760320  34.1308974
  41.5108902  16.8390301  34.9672435  41.1896225  15.7627328  33.9522306
  43.0019776  14.0413200  26.6511545  43.8366668  14.4803004  26.8149105
  43.1378905  13.5651853  25.8319790  40.0511282  11.5992935  32.5989032
  40.5265404  11.7920581  31.7907884  39.1276848  11.6552121  32.3532416
  26.9394789  12.7617102  22.1820111  26.6940831  11.8579432  22.3800321
  27.1090703  12.7634252  21.2399589  34.6291499   3.6340778  31.5644866
  35.1473443   4.3701805  31.2391355  34.2746632   3.9404772  32.3991625
  26.2090436   8.4945460  19.6806272  25.5159681   8.5689815  19.0246308
  25.9642188   7.7305803  20.2027789  32.6837561  19.2300055  18.6470789
  32.1111529  19.8490242  18.1941261  33.2570355  19.7799416  19.1810711
  38.7512951   8.4758695  30.8317338  39.7030374   8.5756793  30.8529562
  38.5816402   7.6836963  31.3415422  36.7727331   5.5614278  31.0176739
  36.1777263   5.8419291  30.3223227  36.4877027   6.0508179  31.7893480
  35.9034821  19.5137205  19.7779371  36.8365494  19.4482767  19.9812247
  35.8158034  20.3493472  19.3193904  38.5322838  18.8303075  16.7383319
  38.4536469  18.4962939  17.6319077  39.3532505  19.3224843  16.7374791
  41.2301029  11.6964815  29.9459638  41.1977349  10.7580815  30.1319321
  41.8401653  11.7748851  29.2125462  33.0684360  10.5660868  15.9886842
  34.0143465  10.4367076  16.0575260  32.6898605   9.8275529  16.4656270
  41.3795518   8.4875858  29.9917921  40.8634566   7.7034315  29.8047850
  42.2635466   8.1594575  30.1564440  47.0477579  12.7580821  29.0865674
  47.7780967  12.4966110  29.6473378  46.4384524  12.0209543  29.1267742
  45.1292876  10.8988684  29.6840126  44.4026040  10.7644649  29.0756617
  44.7140163  11.2065513  30.4896844  32.9523053  14.6178614  37.4487499
  33.8726062  14.7957213  37.6427545  32.9172636  13.6734659  37.2967198
  31.2527277   8.4910844  15.9241727  30.3458733   8.1943957  16.0004440
  31.5303258   8.1940662  15.0576013  22.1705218   9.8117207  26.3740773
  21.8508002   8.9582516  26.0815147  21.6238646  10.0265785  27.1298741
  25.9485125  12.5279648  30.0910280  26.1671135  13.4596756  30.1098314
  26.3610899  12.1687623  30.8765084  32.8689343   3.0347734  22.0785968
  32.0590071   2.6894819  22.4541214  33.5573760   2.7255277  22.6673580
  30.8212990   8.1012854  39.4813029  30.7209717   9.0507211  39.4125120
  30.6034532   7.7731093  38.6089099  30.0226062   5.3497779  16.0653706
  30.8845226   5.6752677  16.3249523  30.2076406   4.5629275  15.5526772
  22.0393478  13.4320119  28.3433895  21.3456949  13.0174072  27.8303849
  22.7866469  13.4740655  27.7467314  38.1758698   4.2226306  23.2088929
  37.5957367   4.8811110  22.8266981  37.9094631   3.4003650  22.7976347
  36.6262265   3.6231363  25.4110249  37.1262043   3.7347898  24.6024568
  37.2697873   3.3192416  26.0511058  30.6844260  11.5309993  38.2978090
  30.2011342  12.3310353  38.5041979  30.7705199  11.5417938  37.3445534
  23.9530220  13.3638373  26.2199910  23.9300908  13.4626060  25.2681793
  24.2630857  14.2103523  26.5417076  26.6117598  15.4214528  30.3346524
  27.5660851  15.3898470  30.2676456  26.4130121  14.9605151  31.1496750
  27.2016980  13.9915644  32.9017322  28.0209869  14.4859722  32.9252159
  27.4753788  13.0747612  32.8734889  36.9583576   6.3826396  22.2645277
  36.0709431   6.6676047  22.0465472  37.3737565   6.2220159  21.4172554
  40.3098112   6.4072917  25.9799617  41.0858502   6.8969369  26.2524233
  39.5846247   6.8330971  26.4371486  42.7470671   7.1200536  27.0373557
  43.3415162   6.8796272  26.3266865  42.8197255   6.4007667  27.6647093
  36.1026790  16.1471071  16.3593297  36.8062640  16.3521073  16.9750953
  35.3789438  16.7147833  16.6242381  36.9324600  11.8980932  22.4795567
  36.8759801  12.3549483  21.6403200  37.4852942  11.1371617  22.3018410
  40.7429406   7.6870664  23.3045687  40.4866340   7.2867299  24.1353895
  40.1182274   8.4014458  23.1795826  45.0541744  10.4266737  25.8116978
  44.4941302  10.4959926  26.5848540  44.4485247  10.2507722  25.0916475
  38.0113487  16.5853600  18.4091757  38.8459091  16.1534798  18.2269232
  37.8497830  16.4135614  19.3368652  37.6659379  13.0885713  19.7748097
  37.6108183  12.9229985  18.8336541  37.0405435  13.7961746  19.9310286
  22.4551894   8.3253778  33.6009519  23.1010758   7.8152732  34.0896744
  22.2469045   9.0622459  34.1752944  34.9805286  15.3934625  39.1001659
  35.8496446  15.5675277  38.7388294  34.5012038  16.2129042  38.9777389
  30.9755505   2.5893822  19.3533415  30.9634175   3.5335662  19.5101686
  31.8678927   2.4063968  19.0592876  26.7949385   5.4721395  37.6984533
  27.6580847   5.1158199  37.9087858  26.2214796   5.1335289  38.3859937
  46.6397762  27.1023251  28.5046934  47.2776172  26.9829998  27.8010274
  46.5218605  28.0504095  28.5634886  43.4487468  27.0550679  28.4408459
  43.1105980  26.9391744  27.5528994  44.3177237  26.6541844  28.4209465
  43.9307251  28.2085531  34.3994664  43.9195892  27.8138329  33.5275168
  44.0927891  27.4751603  34.9928436  36.8538716  30.4037347  27.2689570
  37.6460008  30.0628172  26.8535870  37.0935366  30.5132322  28.1891724
  44.8873843  32.5757123  19.7419815  44.2361823  33.1611204  19.3553828
  45.6818206  33.1063318  19.8014852  38.8129470  29.6646260  20.1406949
  39.5860346  29.1175247  20.0019825  39.1654869  30.5290510  20.3521410
  40.6514513  30.9922643  33.3473848  40.3604379  31.8968273  33.2320515
  41.2871497  31.0339170  34.0617918  41.5770719  28.3699491  29.9375208
  42.1734292  28.1455514  29.2232171  41.6345691  27.6284237  30.5400656
  41.1495748  25.8238926  17.7725399  41.4021269  25.3020448  17.0108862
  40.2120307  25.6605072  17.8752083  46.1939031  24.8274705  25.5800142
  46.9802120  24.4094128  25.2290559  46.4577735  25.7320797  25.7481791
  46.3649108  30.2647555  20.2788799  45.7294941  30.3382182  20.9909704
  46.0346514  30.8541154  19.6007878  51.5947458  24.7649938  26.4833121
  52.3272630  24.1949155  26.7170950  50.8386814  24.3771538  26.9239626
  40.8692037  27.7267032  19.9749774  40.7528295  27.0511936  20.6430858
  40.9794297  27.2399406  19.1581927  43.2123578  27.1877180  23.6796463
  42.8481785  26.6607800  24.3909385  44.0690693  26.7975649  23.5062949
  49.1172878  18.4771512  30.9427729  48.7856203  19.3466923  30.7188944
  48.5218492  18.1607796  31.6221760  42.8529065  22.2167079  18.6757812
  43.0203467  23.0847316  19.0428283  42.6626234  22.3794361  17.7519101
  45.6104398  30.6784058  30.3423642  45.3105121  31.5809097  30.2339449
  45.2655457  30.4116241  31.1944795  49.0101542  23.1966598  28.0221079
  48.1018419  23.1282007  27.7279840  48.9589137  23.6738543  28.8502905
  42.8318285  24.6724737  19.6604478  42.7117911  25.1181787  20.4989959
  42.1370874  25.0210054  19.1018017  40.5925178  37.4428378  23.3094610
  40.5149207  38.3936204  23.3883090  39.9886821  37.0974251  23.9669536
  43.0842407  24.6156244  35.9655977  42.3075741  25.1750164  35.9558841
  43.7232970  25.1013027  36.4870847  50.8763188  21.3983037  29.7998953
  50.2337568  21.6915570  29.1538748  50.3718116  21.2835957  30.6052150
  48.5303352  25.1446210  20.4884813  49.4421208  25.3773597  20.3132510
  48.0212999  25.7283254  19.9259891  41.3388780  27.4241697  35.5273944
  42.0803464  27.9626741  35.2508767  40.6325765  28.0507986  35.6845495
  46.8144119  29.5670838  34.1246105  47.2227475  29.1253248  33.3800737
  46.0921381  28.9923465  34.3780298  43.1675189  24.5043444  31.4979662
  44.0136384  24.9282858  31.6414311  43.1073827  23.8477069  32.1918225
  47.1372934  30.1272028  27.8798394  46.5081796  30.2917742  27.1774462
  46.7498596  30.5413638  28.6509358  51.0162166  31.0626466  25.2342758
  50.3313204  31.4425368  24.6839791  51.1006015  31.6721793  25.9674705
  46.3174635  22.1647813  33.1560836  46.0735566  22.9189873  32.6195111
  46.5934565  22.5433160  33.9908083  48.2713097  28.7086425  31.8338101
  48.4829993  29.3518185  31.1572482  48.2242846  27.8748742  31.3660031
  45.8739326  21.3204246  28.7374673  45.0123805  21.6185499  29.0291411
  45.9001761  21.5374645  27.8055706  42.6900896  29.8646436  25.1448479
  43.1539241  30.1434139  24.3553102  42.4257694  28.9629881  24.9621570
  39.5824977  29.4117918  28.0828242  40.1526334  29.8405186  27.4445727
  40.1733089  29.1300503  28.7812428  41.6269782  25.9869589  21.9538044
  42.3293825  26.4390632  22.4211971  41.2950410  25.3453408  22.5817937
  40.0750143  24.5781345  36.3289254  39.4448804  25.2597626  36.5624650
  39.9686231  24.4664427  35.3842392  49.3858925  31.5858381  30.0060459
  50.2076369  31.1838568  29.7243140  49.3821328  31.4826615  30.9576574
  43.1515529  31.1342424  32.1621169  43.2159961  31.5962831  32.9979341
  42.4426453  30.5039789  32.2903479  42.8663546  32.8010531  22.0300149
  42.7309221  33.6462067  22.4584997  43.4073359  33.0029809  21.2666083
  39.3530886  18.8802111  38.6914505  38.9597832  18.3268310  39.3662149
  40.1697026  19.1912690  39.0821022  36.3192944  30.3185969  22.6028075
  36.8317464  31.1129220  22.7533639  36.9715657  29.6212260  22.5361676
  38.1287829  33.4351726  24.6850828  38.3054457  34.3569690  24.4971812
  38.9244662  33.1210145  25.1145207  42.2698847  20.2959990  36.2834761
  43.0108560  20.8967144  36.2039224  42.5016770  19.5537628  35.7252804
  37.4140185  25.4816358  34.5612991  37.2993700  24.5801615  34.8620090
  36.5584703  25.7280054  34.2097807  44.4932023  33.4234098  36.1600491
  44.0495877  32.6370477  35.8421396  45.1549236  33.6113248  35.4944382
  39.2519144  34.9529900  30.6861170  39.8026569  34.8246963  29.9138164
  38.4130620  35.2524789  30.3356063  46.5913261  33.7036898  34.1881893
  46.5731736  34.5245779  33.6962162  47.5133181  33.5790973  34.4132034
  43.0486315  31.2181027  35.0305401  43.5814652  30.4569316  34.8004709
  42.5200396  30.9254679  35.7729556  46.2156010  16.3241093  30.5599043
  45.8720279  17.2142735  30.4838153  46.5834973  16.1342751  29.6968628
  46.1806293  26.3149704  19.0671478  45.6652916  27.0854309  19.3059865
  45.9083601  25.6414841  19.6904539  43.7653404  21.1599405  24.1256716
  42.9095000  20.7706256  23.9462355  44.1780356  21.2391366  23.2656502
  45.2952550  18.6945748  28.5248276  44.7917346  18.6575884  27.7116081
  45.5883157  19.6038491  28.5844933  41.5395436  18.7784478  27.5314458
  42.4048433  18.5827287  27.1720347  41.6072945  18.5494830  28.4583815
  51.1540567  29.0682059  21.0024651  50.3770010  28.7293219  20.5579814
  51.8332048  29.0734682  20.3279617  45.9692596  24.1876797  20.8931259
  45.6642731  24.5022946  21.7441402  46.9223038  24.2658216  20.9358592
  44.4139028  30.3467020  22.5424213  43.8860389  29.6119779  22.2297451
  43.9126530  31.1241696  22.2964181  49.3931874  28.5416040  27.6591259
  48.7355548  29.2315302  27.7471388  50.1972273  28.9312472  28.0025246
  48.2037333  26.8960413  25.7095201  48.7169214  27.5290405  26.2116911
  48.8538556  26.2961609  25.3438561  39.4727342  23.0391147  18.9226710
  38.6364655  23.3765834  19.2435985  39.3332112  22.9040127  17.9853847
  41.4480423  17.8827935  23.6305894  40.7944835  17.5676952  23.0062509
  41.4060897  17.2603675  24.3565717  42.5591628  28.1647230  15.5459186
  41.6518690  27.9336484  15.7450335  43.0562660  27.3684849  15.7333168
  45.4659707  36.8744737  18.4655872  44.7921406  37.1776434  19.0740830
  45.8525529  37.6773818  18.1161329  44.6818163  24.3709869  27.9553542
  43.7640725  24.5924816  27.7975230  45.0978307  24.4456179  27.0965249
  45.4653211  25.7701284  23.0856222  46.2125030  26.2822681  22.7763344
  45.7344801  25.4485337  23.9460616  43.7379861  28.2659825  20.0683176
  42.8291081  27.9818858  20.1655646  43.7674945  28.6858904  19.2086483
  48.9699129  31.8766414  23.8374344  48.5161456  31.0357324  23.8939534
  48.3393095  32.5127813  24.1749124  47.9132048  22.8058400  25.0675011
  47.1754805  22.2935787  25.3985254  48.1658822  22.3658782  24.2558288
  47.4132068  33.7142911  24.7724162  47.7055042  34.2747968  24.0536528
  47.9230689  34.0071472  25.5277321  48.0143676  15.5834652  25.6616781
  48.3202552  14.7232016  25.3742696  48.7396280  16.1752273  25.4615774
  42.2864755  25.8788446  26.1692972  42.3413365  24.9262282  26.0935448
  41.4755957  26.0347885  26.6534270  43.4355949  29.8068569  17.4071255
  42.9975379  29.0904428  16.9476892  44.1766390  30.0344683  16.8456346
  42.3765693  34.4923262  25.8617615  42.3341872  34.7184109  24.9326147
  43.2928392  34.2586637  26.0103416  45.8231327  24.9607330  32.7598244
  46.1780715  25.1878803  33.6192710  46.4703458  25.2925707  32.1375500
  51.5529064  28.0825766  23.4647573  51.4146963  28.2727362  22.5368763
  51.1965283  28.8445148  23.9215625  39.7171190  22.0683861  29.5444585
  40.3570569  21.9272620  28.8467549  38.8848721  21.7818374  29.1683187
  51.5798444  30.1502293  28.4758845  52.0134950  30.0577582  29.3241899
  52.2930024  30.1259793  27.8378861  40.4931494  31.3686291  25.6579578
  41.2872092  30.8736611  25.4562153  39.7823186  30.8404154  25.2947283
  45.3126338  33.7504387  30.0091946  45.3663361  34.3195323  30.7769661
  44.4441120  33.9206272  29.6445983  38.1924732  23.4521943  31.4916397
  38.8647785  23.2439305  30.8429046  37.3654518  23.2544029  31.0521629
  52.4413993  30.1925993  31.0091730  52.6349883  31.0971804  31.2551005
  52.3414611  29.7333412  31.8430315  44.0950304  20.0783884  33.5082058
  43.4478219  20.7773834  33.4146534  44.8651319  20.5120028  33.8758306
  47.5029102  30.3432736  36.5832611  47.3514608  30.1143288  35.6662695
  47.4933781  31.3003337  36.5963956  44.2714438  27.9164649  31.5678877
  45.2006498  28.0675808  31.3947845  43.8505468  28.0048670  30.7127524
  43.0702770  31.9415313  29.3377415  42.9313856  31.5734098  30.2103353
  42.2817366  32.4562953  29.1661373  43.6650922  37.0424410  20.6802952
  43.8402678  36.5712453  21.4948574  42.9783710  37.6690176  20.9084212
  44.6207985  31.3196916  26.7266253  44.2857818  31.2797686  27.6223903
  44.1211931  30.6541632  26.2536663  38.5952229  26.7264546  32.2518834
  38.4572027  25.9944785  32.8530373  39.5057153  26.6373446  31.9703022
  47.5567177  28.6652950  17.0003312  46.9396347  27.9399778  16.9036365
  47.0883665  29.4262311  16.6570387  41.2234530  26.4384505  31.7402514
  41.9334148  25.7977697  31.6989132  41.1803838  26.6897400  32.6628694
  49.2121308  33.3751859  34.6609093  49.1533855  32.6911079  33.9939676
  49.6140827  34.1170849  34.2089719  39.9363464  23.4249723  33.5598153
  39.4000821  22.9740462  34.2119749  39.3480172  23.5595632  32.8168617
  38.2312007  40.1913772  27.4542812  38.4708605  40.8232297  28.1321830
  37.3881204  39.8401812  27.7408171  39.3465723  22.8838375  16.1224617
  38.4695189  22.7627175  15.7586863  39.8223476  22.0924453  15.8703505
  49.2138716  31.3391443  32.8923072  48.3265494  31.0017364  33.0149471
  49.7837267  30.6074474  33.1291838  42.7439869  35.9992895  29.8584316
  42.6710041  36.8047866  30.3703620  42.3017262  36.1984861  29.0332337
  42.5329649  35.2364665  23.3687137  41.7497171  35.7786345  23.4625362
  43.2322394  35.7538645  23.7681378  45.8426299  21.0459294  26.0121343
  46.3394998  20.2929257  25.6922413  45.0713280  21.0823611  25.4464552
  53.6956056  26.7499660  27.6539634  53.6845932  27.6324375  27.2833567
  52.8273436  26.3971211  27.4594171  45.2038553  35.8979729  32.0142474
  45.9166525  36.5327194  31.9418376  44.7128581  35.9943595  31.1982476
  46.9256080  29.8030982  23.5859766  45.9912358  29.9232444  23.4164470
  47.1032748  28.9003448  23.3219776  42.4261268  23.1876677  25.7393027
  42.0559055  22.6347718  26.4273933  42.9220360  22.5834811  25.1868027
  50.3128631  25.6448301  24.1209800  50.7789083  26.4776292  24.0470103
  50.7636131  25.1793282  24.8255059  40.2550466  33.6474172  32.8348045
  40.9559926  34.2810655  32.9877439  39.7845581  33.9888904  32.0743684
  48.3804862  31.9892122  21.1195952  48.6564706  31.8748717  22.0289826
  47.5109361  31.5909607  21.0808125  48.2845294  18.0128888  28.1600701
  47.3708373  18.2433115  28.3282908  48.7138395  18.0967332  29.0114734
  48.0551752  26.2018780  30.6600596  47.4023202  26.4494687  30.0053048
  48.4332132  25.3882918  30.3263073  45.0158926  36.2378473  24.7628766
  45.1981321  35.4200129  25.2256518  45.8391912  36.4546165  24.3253656
  45.3501091  35.1646658  22.0243814  45.8788858  34.6539113  21.4113976
  45.6129311  34.8489188  22.8889347  44.1039325  26.9438591  37.1466633
  43.4279962  26.8432720  37.8169008  44.9266959  26.7877805  37.6102630
  35.8518184  33.1810527  29.7679148  36.4371621  32.4354215  29.9007052
  35.6543023  33.4914484  30.6515812  38.7056839  36.2161775  24.7841590
  38.0367215  36.7007902  24.3005630  38.5669709  36.4630995  25.6984969
  42.8462108  38.2505518  31.3824249  43.3980416  38.4137140  32.1473334
  43.1868301  38.8409956  30.7104273  37.8226601  20.5980668  31.9846133
  37.8867928  21.4595499  31.5723531  37.7593721  19.9854670  31.2518492
  37.2978874  22.6703801  35.6319168  37.9250913  22.2880878  36.2456692
  36.4406793  22.4518003  35.9974860  47.6972982  33.0766776  37.2372903
  48.2412886  33.6896734  36.7427858  47.1159827  33.6346354  37.7539916
  45.9830495  36.1987494  28.3687931  45.8581635  35.3977234  27.8598876
  46.6409586  36.6933687  27.8801901  48.0465404  33.9996514  29.9967481
  47.0995739  33.8801865  29.9245808  48.3948177  33.1119012  30.0793742
  40.4064977  19.8890653  33.8205723  40.9299379  20.1352949  34.5832032
  40.1877310  20.7210688  33.4008860  45.0511837  33.7949230  26.1971833
  44.9036799  32.8665938  26.3779403  45.8765330  33.8169321  25.7128908
  38.9174081  22.4467297  22.0552325  39.2570154  22.9753219  21.3330934
  39.3646202  22.7847703  22.8310892  48.6545959  34.6177789  27.2836706
  49.5792506  34.4120650  27.1461157  48.4861262  34.3694190  28.1926047
  41.6117522  20.8304348  31.5055393  41.2714342  20.0312161  31.9076073
  40.9056528  21.1306059  30.9332226  42.2633994  17.9153660  29.9582716
  43.0860063  17.4414139  29.8361607  42.5072057  18.6944144  30.4581403
  40.9042228  20.9441919  20.2545618  41.6250591  21.3223172  19.7509335
  40.2807533  21.6630796  20.3580596  45.0473351  21.6487068  21.1903950
  45.2636966  22.5311706  20.8892778  44.5667418  21.2573281  20.4609592
  41.6468956  21.5975329  27.8155584  41.6330524  20.7016422  27.4787882
  42.3641384  21.6045993  28.4493871  43.4995086  22.0312669  29.8608712
  43.2412864  22.9529740  29.8593042  42.9680127  21.6343104  30.5509176
  48.4441275  35.1363456  22.6398797  48.6178153  34.5709879  21.8872650
  48.9370166  35.9364351  22.4578287  41.0505851  20.4789709  23.0843155
  41.1721763  19.5506356  23.2834042  40.7607894  20.4928395  22.1721470
  43.9197042  18.1644620  26.2209874  43.9418739  18.2283953  25.2661854
  44.3365101  17.3249128  26.4150381  49.4316448  34.4530221  19.7395696
  50.1267352  35.0736913  19.9583010  49.7739598  33.6025572  20.0148073
  35.0484257  26.2748022  33.5992513  34.3065993  26.4230657  34.1857143
  34.7277001  26.5356287  32.7359262  51.3307871  31.9029926  21.2683026
  51.8559195  32.2417199  20.5432346  51.2430223  30.9676942  21.0846161
  42.9927919  35.8164000  33.3972903  43.3015046  35.5713147  34.2695603
  43.7903401  36.0210638  32.9091773  43.0148531  37.9701910  25.6278280
  42.5753522  37.4778288  26.3211136  43.7656648  37.4274877  25.3870355
  35.4940870  34.1613450  25.6302908  36.3198890  33.8617222  25.2501551
  35.1434922  33.3921073  26.0792696  40.4622404  33.5139919  27.7000581
  39.8402413  32.8510624  27.4002809  41.1327270  33.5401051  27.0174229
  40.5346931  21.9921707  37.2933087  40.5835086  22.8683830  36.9110857
  41.0769445  21.4499100  36.7204730  51.0201777  32.5362830  36.5734224
  50.2297320  32.5186969  36.0338724  50.7835131  33.0751124  37.3283261
  51.1399652  29.3855296  33.8866953  51.1897657  29.2205304  34.8282476
  51.0313575  28.5182555  33.4964834  40.0235910  32.0643842  21.1759042
  40.1724031  32.7479306  20.5225714  40.8302354  32.0448932  21.6908497
  48.4303414  25.3686224  35.2026260  49.3313277  25.2292689  34.9110257
  48.5051389  25.5340679  36.1424437  42.7646219  22.7453079  34.0479446
  41.8949529  23.0386645  33.7762034  43.0005700  23.3293524  34.7686709
  52.6417849  31.8052238  34.1308974  52.3502657  32.1682218  34.9672435
  52.0289980  31.0919246  33.9522306  50.8905037  26.9284852  32.5989032
  51.3659158  27.1212499  31.7907884  49.9670602  26.9844038  32.3532416
  45.4685253  18.9632696  31.5644866  45.9867197  19.6993723  31.2391355
  45.1140386  19.2696689  32.3991625  45.7197847  15.3832979  27.0845763
  45.9999601  14.7156168  27.7106189  46.5048454  15.5762074  26.5720427
  43.5231316  34.5591972  18.6470789  42.9505283  35.1782160  18.1941261
  44.0964110  35.1091334  19.1810711  49.5906706  23.8050613  30.8317338
  50.5424129  23.9048710  30.8529562  49.4210156  23.0128881  31.3415422
  47.6121085  20.8906196  31.0176739  47.0171017  21.1711208  30.3223227
  47.3270782  21.3800097  31.7893480  46.7428576  34.8429123  19.7779371
  47.6759249  34.7774684  19.9812247  46.6551789  35.6785389  19.3193904
  49.3716592  34.1594993  16.7383319  49.2930224  33.8254857  17.6319077
  50.1926259  34.6516761  16.7374791  52.0694784  27.0256732  29.9459638
  52.0371104  26.0872733  30.1319321  52.6795407  27.1040769  29.2125462
  43.9078114  25.8952785  15.9886842  44.8537219  25.7658993  16.0575260
  43.5292359  25.1567447  16.4656270  52.2189272  23.8167776  29.9917921
  51.7028321  23.0326232  29.8047850  53.1029221  23.4886492  30.1564440
  49.8799999  17.5608791  25.9513733  49.6824820  17.2523879  26.8357065
  50.4899705  18.2870430  26.0811663  43.7916807  29.9470531  37.4487499
  44.7119816  30.1249130  37.6427545  43.7566390  29.0026577  37.2967198
  42.0921032  23.8202762  15.9241727  41.1852487  23.5235874  16.0004440
  42.3697013  23.5232580  15.0576013  36.7878880  27.8571566  30.0910280
  37.0064889  28.7888674  30.1098314  37.2004653  27.4979540  30.8765084
  43.7083097  18.3639651  22.0785968  42.8983826  18.0186736  22.4541214
  44.3967514  18.0547195  22.6673580  45.6373646  17.4417698  23.7010265
  46.1904684  17.8613152  24.3600288  45.8743732  16.5153446  23.7433221
  41.6606745  23.4304772  39.4813029  41.5603472  24.3799129  39.4125120
  41.4428287  23.1023011  38.6089099  40.8619816  20.6789697  16.0653706
  41.7238980  21.0044595  16.3249523  41.0470160  19.8921193  15.5526772
  49.0152453  19.5518223  23.2088929  48.4351122  20.2103027  22.8266981
  48.7488385  18.7295568  22.7976347  47.4656019  18.9523281  25.4110249
  47.9655797  19.0639816  24.6024568  48.1091627  18.6484334  26.0511058
  41.5238015  26.8601911  38.2978090  41.0405097  27.6602271  38.5041979
  41.6098954  26.8709855  37.3445534  37.4511352  30.7506445  30.3346524
  38.4054606  30.7190388  30.2676456  37.2523876  30.2897069  31.1496750
  38.0410735  29.3207561  32.9017322  38.8603624  29.8151640  32.9252159
  38.3147542  28.4039529  32.8734889  47.7977331  21.7118314  22.2645277
  46.9103186  21.9967964  22.0465472  48.2131320  21.5512077  21.4172554
  51.1491867  21.7364835  25.9799617  51.9252257  22.2261287  26.2524233
  50.4240001  22.1622889  26.4371486  53.5864425  22.4492454  27.0373557
  54.1808916  22.2088190  26.3266865  53.6591009  21.7299584  27.6647093
  35.8061581  36.2926065  27.3516722  35.6716049  35.5326466  26.7854720
  35.3893643  37.0166965  26.8845511  46.9420544  31.4762988  16.3593297
  47.6456394  31.6812991  16.9750953  46.2183193  32.0439750  16.6242381
  47.7718354  27.2272850  22.4795567  47.7153556  27.6841401  21.6403200
  48.3246697  26.4663534  22.3018410  51.5823160  23.0162581  23.3045687
  51.3260095  22.6159217  24.1353895  50.9576028  23.7306375  23.1795826
  38.9630707  37.1895382  27.5635165  38.8463091  38.1340814  27.4613855
  38.1423153  36.8868943  27.9520964  48.8507242  31.9145518  18.4091757
  49.6852846  31.4826716  18.2269232  48.6891585  31.7427531  19.3368652
  48.5053134  28.4177631  19.7748097  48.4501938  28.2521902  18.8336541
  47.8799189  29.1253664  19.9310286  33.2945649  23.6545695  33.6009519
  33.9404512  23.1444649  34.0896744  33.0862800  24.3914377  34.1752944
  45.8199041  30.7226543  39.1001659  46.6890201  30.8967195  38.7388294
  45.3405792  31.5420960  38.9777389  41.8149259  17.9185740  19.3533415
  41.8027929  18.8627580  19.5101686  42.7072681  17.7355885  19.0592876
  39.9885221  37.8423644  30.7791093  40.8912468  37.8747254  31.0957588
  39.7622591  36.9124095  30.7937429  41.7438823  36.5954630  27.4401172
  40.7934454  36.5956492  27.3265544  42.0471309  35.8487365  26.9237206
  45.6301379  14.5128516  23.6079352  44.8633775  13.9587003  23.7536034
  46.0412084  14.5850385  24.4693503  37.6343140  20.8013312  37.6984533
  38.4974601  20.4450117  37.9087858  37.0608550  20.4627207  38.3859937
  50.1468039  44.2378073  24.4305350  49.5832904  44.1468010  23.6621638
  50.0320434  43.4177978  24.9107842  47.6932471  45.7329265  27.2689570
  48.4853763  45.3920089  26.8535870  47.9329121  45.8424240  28.1891724
  49.6523225  44.9938178  20.1406949  50.4254101  44.4467165  20.0019825
  50.0048623  45.8582427  20.3521410  51.4908267  46.3214560  33.3473848
  51.1998133  47.2260191  33.2320515  52.1265251  46.3631088  34.0617918
  52.4164474  43.6991409  29.9375208  53.0128046  43.4747431  29.2232171
  52.4739445  42.9576154  30.5400656  51.9889502  41.1530844  17.7725399
  52.2415023  40.6312365  17.0108862  51.0514061  40.9896990  17.8752083
  51.7085791  43.0558950  19.9749774  51.5922049  42.3803853  20.6430858
  51.8188051  42.5691324  19.1581927  53.6922819  37.5458997  18.6757812
  53.8597221  38.4139233  19.0428283  53.5019988  37.7086279  17.7519101
  49.9010634  42.4589773  26.3760346  48.9761130  42.3265987  26.5838038
  50.1495047  43.2383992  26.8730289  53.6712040  40.0016654  19.6604478
  53.5511665  40.4473705  20.4989959  52.9764628  40.3501972  19.1018017
  47.2619445  42.1023046  27.2104135  47.3911826  42.3557525  28.1243547
  46.5816896  42.6950754  26.8908791  52.1782534  42.7533615  35.5273944
  52.9197218  43.2918659  35.2508767  51.4719520  43.3799904  35.6845495
  53.5294650  45.1938354  25.1448479  53.9932996  45.4726057  24.3553102
  53.2651448  44.2921799  24.9621570  50.4218731  44.7409836  28.0828242
  50.9920088  45.1697104  27.4445727  51.0126843  44.4592420  28.7812428
  52.4663536  41.3161506  21.9538044  53.1687580  41.7682550  22.4211971
  52.1344165  40.6745325  22.5817937  50.9143898  39.9073263  36.3289254
  50.2842558  40.5889544  36.5624650  50.8079986  39.7956345  35.3842392
  46.2088870  39.5745059  27.2555178  45.4187924  39.8302588  26.7795288
  46.7000118  40.3893397  27.3607218  48.1603616  39.9389638  24.2138654
  47.3634779  40.0508333  24.7322150  47.9329208  40.2776291  23.3479545
  44.4926573  39.8275550  29.6870169  44.7434612  40.7122560  29.9527745
  45.0286122  39.6480151  28.9145260  50.1924641  34.2094029  38.6914505
  49.7991586  33.6560228  39.3662149  51.0090781  34.5204607  39.0821022
  47.1586698  45.6477887  22.6028075  47.6711219  46.4421137  22.7533639
  47.8109411  44.9504178  22.5361676  48.9681583  48.7643643  24.6850828
  49.1448211  49.6861608  24.4971812  49.7638417  48.4502063  25.1145207
  53.1092602  35.6251908  36.2834761  53.8502315  36.2259061  36.2039224
  53.3410524  34.8829546  35.7252804  48.2533940  40.8108275  34.5612991
  48.1387455  39.9093533  34.8620090  47.3978457  41.0571972  34.2097807
  45.1235615  43.9766541  23.3787645  45.9610837  44.3863550  23.1621353
  45.3013883  43.0365984  23.3487839  52.3789191  34.1076396  27.5314458
  53.2442188  33.9119205  27.1720347  52.4466700  33.8786748  28.4583815
  49.9851510  36.3378604  24.9030825  50.5595262  36.1153785  24.1704018
  50.5722492  36.4067298  25.6559426  50.3121097  38.3683065  18.9226710
  49.4758409  38.7057751  19.2435985  50.1725867  38.2332045  17.9853847
  52.2874178  33.2119853  23.6305894  51.6338590  32.8968870  23.0062509
  52.2454652  32.5895593  24.3565717  53.3985382  43.4939148  15.5459186
  52.4912444  43.2628401  15.7450335  53.8956414  42.6976767  15.7333168
  45.1461786  41.3157257  24.0498378  44.9486186  40.7226617  23.3249445
  44.5908450  41.0109467  24.7674317  53.1258510  41.2080363  26.1692972
  53.1807120  40.2554200  26.0935448  52.3149712  41.3639802  26.6534270
  51.0650870  39.8257423  23.9283350  50.2518735  40.1251594  24.3348543
  51.5609864  39.4313112  24.6457833  50.5564945  37.3975779  29.5444585
  51.1964324  37.2564538  28.8467549  49.7242475  37.1110292  29.1683187
  51.3325248  46.6978209  25.6579578  52.1265847  46.2028529  25.4562153
  50.6216941  46.1696072  25.2947283  47.6408012  40.8421291  21.7339331
  46.7105600  40.7805746  21.9509293  47.7365484  40.3197243  20.9375972
  47.5593561  37.3676104  24.3217572  47.8200378  38.2821437  24.2126733
  48.3810733  36.9000546  24.4714185  49.0318486  38.7813861  31.4916397
  49.7041540  38.5731223  30.8429046  48.2048273  38.5835947  31.0521629
  49.4345984  42.0556464  32.2518834  49.2965782  41.3236702  32.8530373
  50.3450907  41.9665364  31.9703022  52.0628284  41.7676423  31.7402514
  52.7727903  41.1269615  31.6989132  52.0197592  42.0189318  32.6628694
  50.7757218  38.7541641  33.5598153  50.2394575  38.3032379  34.2119749
  50.1873927  38.8887550  32.8168617  50.1859477  38.2130292  16.1224617
  49.3088943  38.0919093  15.7586863  50.6617230  37.4216371  15.8703505
  41.7061617  43.0007452  26.2166124  42.3932657  42.6869182  25.6287139
  41.5509746  43.9048817  25.9433375  46.5096339  37.8897649  30.6451148
  46.4254528  37.2823318  29.9101557  45.6879046  38.3806667  30.6460644
  53.2655022  38.5168595  25.7393027  52.8952810  37.9639635  26.4273933
  53.7614115  37.9126729  25.1868027  46.6911939  48.5102445  29.7679148
  47.2765376  47.7646133  29.9007052  46.4936777  48.8206402  30.6515812
  41.2829593  41.0808045  28.4883591  41.3213693  40.5471636  29.2820709
  40.7769886  40.5543251  27.8694568  48.6620356  35.9272586  31.9846133
  48.7261682  36.7887417  31.5723531  48.5987476  35.3146588  31.2518492
  48.1372628  37.9995718  35.6319168  48.7644667  37.6172796  36.2456692
  47.2800547  37.7809920  35.9974860  44.9138171  39.8072148  21.5637522
  45.2091612  38.8982826  21.5104576  44.0126207  39.7859887  21.2418525
  48.4432418  37.8828144  27.5465071  47.7219004  38.4964112  27.4072544
  49.2325674  38.4185909  27.4681717  51.2458732  35.2182571  33.8205723
  51.7693133  35.4644867  34.5832032  51.0271065  36.0502605  33.4008860
  46.6426013  37.4886245  21.6876848  46.3138719  36.6083624  21.5051953
  46.9965383  37.4333914  22.5753237  49.7567836  37.7759215  22.0552325
  50.0963908  38.3045136  21.3330934  50.2039956  38.1139621  22.8310892
  52.4511277  36.1596266  31.5055393  52.1108097  35.3604079  31.9076073
  51.7450283  36.4597977  30.9332226  53.1027748  33.2445578  29.9582716
  53.9253818  32.7706056  29.8361607  53.3465812  34.0236062  30.4581403
  51.7435983  36.2733837  20.2545618  52.4644345  36.6515089  19.7509335
  51.1201287  36.9922713  20.3580596  50.6266327  39.9364699  27.7674695
  50.4810908  40.2505002  28.6598976  50.1491531  40.5549599  27.2145594
  52.4862710  36.9267247  27.8155584  52.4724279  36.0308340  27.4787882
  53.2035138  36.9337910  28.4493871  45.1011989  42.4770043  30.7062356
  44.5565457  43.2529851  30.8382630  45.9791339  42.8240848  30.5481478
  51.8899606  35.8081627  23.0843155  52.0115517  34.8798273  23.2834042
  51.6001648  35.8220313  22.1721470  45.8878011  41.6039939  33.5992513
  45.1459747  41.7522575  34.1857143  45.5670755  41.8648205  32.7359262
  46.3334625  49.4905368  25.6302908  47.1592645  49.1909140  25.2501551
  45.9828677  48.7212991  26.0792696  44.5343230  47.4091695  26.5891841
  43.6975138  46.9813869  26.4075842  44.5066875  47.6024138  27.5262632
  51.3740686  37.3213624  37.2933087  51.4228841  38.1975747  36.9110857
  51.9163200  36.7791017  36.7204730  50.8629665  47.3935760  21.1759042
  51.0117785  48.0771224  20.5225714  51.6696108  47.3740850  21.6908497
  53.6039974  38.0744997  34.0479446  52.7343283  38.3678563  33.7762034
  53.8399454  38.6585442  34.7686709  48.6182298  43.4200937  22.1820111
  48.3728340  42.5163267  22.3800321  48.7878212  43.4218088  21.2399589
  47.8877945  39.1529295  19.6806272  47.1947190  39.2273650  19.0246308
  47.6429697  38.3889639  20.2027789  52.9314786  39.1494679  15.9241727
  52.0246241  38.8527792  16.0004440  53.2090767  38.8524497  15.0576013
  43.8492726  40.4701043  26.3740773  43.5295511  39.6166351  26.0815147
  43.3026155  40.6849621  27.1298741  47.6272634  43.1863484  30.0910280
  47.8458644  44.1180592  30.1098314  48.0398408  42.8271458  30.8765084
  52.5000499  38.7596689  39.4813029  52.3997226  39.7091046  39.4125120
  52.2822041  38.4314928  38.6089099  51.7013571  36.0081615  16.0653706
  52.5632735  36.3336513  16.3249523  51.8863915  35.2213110  15.5526772
  43.7180986  44.0903954  28.3433895  43.0244458  43.6757907  27.8303849
  44.4653977  44.1324491  27.7467314  52.3631769  42.1893828  38.2978090
  51.8798851  42.9894188  38.5041979  52.4492708  42.2001773  37.3445534
  45.6317729  44.0222208  26.2199910  45.6088417  44.1209895  25.2681793
  45.9418366  44.8687359  26.5417076  48.2905107  46.0798363  30.3346524
  49.2448360  46.0482305  30.2676456  48.0917630  45.6188987  31.1496750
  48.8804489  44.6499479  32.9017322  49.6997378  45.1443558  32.9252159
  49.1541297  43.7331447  32.8734889  44.1339403  38.9837613  33.6009519
  44.7798267  38.4736567  34.0896744  43.9256554  39.7206295  34.1752944
  52.6543014  33.2477658  19.3533415  52.6421684  34.1919497  19.5101686
  53.5466436  33.0647803  19.0592876  48.4736894  36.1305230  37.6984533
  49.3368356  35.7742035  37.9087858  47.9002305  35.7919125  38.3859937
  27.3918254   1.8683977  14.1788118  27.6314852   2.5002502  14.8567137
  26.5487450   1.5172017  14.4653478  39.3074285   5.9148278  11.1550656
  38.7439151   5.8238215  10.3866944  39.1926680   5.0948183  11.6353149
  36.8538717   7.4099470  13.9934877  37.6460009   7.0690294  13.5781176
  37.0935368   7.5194445  14.9137030  38.8129471   6.6708383   6.8652256
  39.5860347   6.1237370   6.7265131  39.1654870   7.5352632   7.0766717
  40.6514514   7.9984765  20.0719155  40.3604380   8.9030396  19.9565821
  41.2871498   8.0401293  20.7863225  41.5770721   5.3761614  16.6620515
  42.1734293   5.1517636  15.9477478  41.6345692   4.6346359  17.2645962
  45.6104399   7.6846181  17.0668949  45.3105122   8.5871220  16.9584756
  45.2655458   7.4178364  17.9190102  39.0616880   4.1359978  13.1005653
  38.1367377   4.0036192  13.3083345  39.3101294   4.9154197  13.5975595
  36.4225691   3.7793251  13.9349442  36.5518073   4.0327730  14.8488854
  35.7423143   4.3720959  13.6154097  40.5925179  14.4490501  10.0339916
  40.5149208  15.3998326  10.1128397  39.9886822  14.1036374  10.6914843
  41.3388781   4.4303820  22.2519250  42.0803465   4.9688864  21.9754074
  40.6325766   5.0570109  22.4090802  46.8144120   6.5732960  20.8491412
  47.2227477   6.1315371  20.1046044  46.0921382   5.9985588  21.1025605
  47.1372935   7.1334151  14.6043701  46.5081798   7.2979865  13.9019768
  46.7498597   7.5475761  15.3754665  42.6900897   6.8708559  11.8693786
  43.1539243   7.1496262  11.0798408  42.4257695   5.9692004  11.6866876
  39.5824978   6.4180041  14.8073549  40.1526335   6.8467309  14.1691033
  40.1733090   6.1362625  15.5057735  49.3858927   8.5920503  16.7305765
  50.2076370   8.1900691  16.4488447  49.3821329   8.4888737  17.6821881
  43.1515530   8.1404547  18.8866476  43.2159963   8.6024954  19.7224648
  42.4426454   7.5101911  19.0148786  33.6532820   1.5045755  16.4115475
  33.9040858   2.3892764  16.6773051  34.1892368   1.3250356  15.6390567
  42.8663548   9.8072654   8.7545456  42.7309222  10.6524190   9.1830304
  43.4073360  10.0091932   7.9911390  36.3192945   7.3248092   9.3273381
  36.8317466   8.1191342   9.4778946  36.9715658   6.6274383   9.2606983
  38.1287830  10.4413848  11.4096134  38.3054458  11.3631813  11.2217118
  38.9244663  10.1272268  11.8390514  44.4932024  10.4296221  22.8845798
  44.0495878   9.6432599  22.5666703  45.1549238  10.6175371  22.2189689
  39.2519145  11.9592022  17.4106477  39.8026570  11.8309085  16.6383471
  38.4130621  12.2586911  17.0601369  46.5913262  10.7099020  20.9127199
  46.5731737  11.5307902  20.4207469  47.5133182  10.5853096  21.1377341
  43.0486316   8.2243150  21.7550708  43.5814653   7.4631438  21.5250016
  42.5200397   7.9316802  22.4974862  34.2841862   5.6536746  10.1032952
  35.1217084   6.0633755   9.8866659  34.4620130   4.7136189  10.0733146
  44.4139029   7.3529142   9.2669520  43.8860391   6.6181902   8.9542757
  43.9126532   8.1303819   9.0209488  47.4132069  10.7205034  11.4969469
  47.7055044  11.2810091  10.7781834  47.9230690  11.0133595  12.2522628
  34.3068033   2.9927462  10.7743685  34.1092433   2.3996822  10.0494752
  33.7514697   2.6879672  11.4919624  42.3765694  11.4985385  12.5862922
  42.3341873  11.7246231  11.6571454  43.2928393  11.2648759  12.7348723
  40.4931495   8.3748414  12.3824885  41.2872094   7.8798734  12.1807460
  39.7823188   7.8466277  12.0192590  45.3126340  10.7566509  16.7337252
  45.3663362  11.3257446  17.5014968  44.4441121  10.9268394  16.3691289
  47.5029103   7.3494859  23.3077918  47.3514609   7.1205410  22.3908001
  47.4933783   8.3065460  23.3209263  44.2714439   4.9226771  18.2924184
  45.2006499   5.0737931  18.1193151  43.8505469   5.0110792  17.4372831
  43.0702771   8.9477436  16.0622722  42.9313857   8.5796220  16.9348660
  42.2817367   9.4625075  15.8906679  43.6650923  14.0486532   7.4048258
  43.8402679  13.5774575   8.2193881  42.9783711  14.6752299   7.6329519
  44.6207986   8.3259039  13.4511559  44.2857819   8.2859809  14.3469209
  44.1211932   7.6603754  12.9781970  38.5952230   3.7326669  18.9764141
  38.4572028   3.0006907  19.5775680  39.5057154   3.6435569  18.6948328
  49.2121310  10.3813981  21.3854399  49.1533856   9.6973201  20.7184982
  49.6140828  11.1232971  20.9335025  38.2312008  17.1975895  14.1788118
  38.4708607  17.8294419  14.8567137  37.3881205  16.8463935  14.4653478
  49.2138717   8.3453565  19.6168379  48.3265496   8.0079487  19.7394778
  49.7837268   7.6136596  19.8537145  30.8667864   4.6777657  12.9411430
  31.5538904   4.3639387  12.3532446  30.7115993   5.5819022  12.6678682
  42.7439870  13.0055018  16.5829622  42.6710042  13.8109989  17.0948927
  42.3017263  13.2046983  15.7577644  42.5329650  12.2426788  10.0932444
  41.7497172  12.7848468  10.1870668  43.2322395  12.7600767  10.4926685
  45.2038554  12.9041852  18.7387781  45.9166526  13.5389316  18.6663682
  44.7128583  13.0005718  17.9227783  40.2550467  10.6536295  19.5593352
  40.9559927  11.2872778  19.7122746  39.7845582  10.9951027  18.7988991
  45.0158927  13.2440596  11.4874072  45.1981322  12.4262252  11.9501825
  45.8391913  13.4608288  11.0498962  45.3501093  12.1708781   8.7489121
  45.8788859  11.6601235   8.1359283  45.6129312  11.8551311   9.6134654
  35.8518185  10.1872650  16.4924454  36.4371622   9.4416338  16.6252359
  35.6543024  10.4976607  17.3761118  38.7056841  13.2223897  11.5086897
  38.0367216  13.7070025  11.0250937  38.5669710  13.4693118  12.4230275
  30.4435840   2.7578250  15.2128898  30.4819940   2.2241841  16.0066016
  29.9376133   2.2313456  14.5939875  42.8462109  15.2567641  18.1069555
  43.3980417  15.4199262  18.8718640  43.1868303  15.8472079  17.4349580
  47.6972984  10.0828898  23.9618210  48.2412888  10.6958857  23.4673164
  47.1159828  10.6408477  24.4785223  45.9830497  13.2049616  15.0933237
  45.8581636  12.4039356  14.5844183  46.6409588  13.6995810  14.6047207
  48.0465405  11.0058637  16.7212787  47.0995740  10.8863988  16.6491114
  48.3948178  10.1181135  16.8039049  45.0511838  10.8011353  12.9217140
  44.9036801   9.8728060  13.1024710  45.8765332  10.8231443  12.4374215
  48.6545960  11.6239912  14.0082012  49.5792508  11.4182773  13.8706464
  48.4861263  11.3756313  14.9171354  34.2618236   4.1540248  17.4307663
  33.7171704   4.9300056  17.5627937  35.1397586   4.5011053  17.2726784
  35.0484258   3.2810144  20.3237820  34.3065994   3.4292780  20.9102450
  34.7277002   3.5418410  19.4604569  42.9927921  12.8226123  20.1218210
  43.3015047  12.5775269  20.9940909  43.7903403  13.0272761  19.6337080
  43.0148533  14.9764032  12.3523586  42.5753523  14.4840411  13.0456443
  43.7656650  14.4337000  12.1115661  35.4940872  11.1675573  12.3548214
  36.3198892  10.8679345  11.9746858  35.1434924  10.3983195  12.8038003
  40.4622405  10.5202041  14.4245888  39.8402414   9.8572746  14.1248116
  41.1327272  10.5463173  13.7419536  33.6949477   9.0861900  13.3137148
  32.8581385   8.6584074  13.1321149  33.6673122   9.2794343  14.2507939
  51.0201778   9.5424953  23.2979531  50.2297322   9.5249091  22.7584030
  50.7835133  10.0813246  24.0528567  40.0235912   9.0705965   7.9004348
  40.1724032   9.7541429   7.2471021  40.8302355   9.0511055   8.4153804
  52.6417850   8.8114360  20.8554281  52.3502658   9.1744341  21.6917742
  52.0289981   8.0981369  20.6767613  37.7788545   5.0971142   8.9065417
  37.5334587   4.1933472   9.1045627  37.9484459   5.0988293   7.9644895
  43.7916808   6.9532654  24.1732805  44.7119818   7.1311253  24.3672852
  43.7566391   6.0088699  24.0212505  33.0098973   2.1471248  13.0986080
  32.6901758   1.2936556  12.8060454  32.4632401   2.3619826  13.8544047
  36.7878881   4.8633689  16.8155586  37.0064891   5.7950796  16.8343620
  37.2004655   4.5041663  17.6010390  32.8787233   5.7674159  15.0679201
  32.1850705   5.3528112  14.5549156  33.6260224   5.8094696  14.4712620
  41.5238016   3.8664033  25.0223397  41.0405098   4.6664393  25.2287286
  41.6098955   3.8771978  24.0690841  34.7923976   5.6992413  12.9445216
  34.7694664   5.7980100  11.9927099  35.1024612   6.5457564  13.2662382
  37.4511354   7.7568568  17.0591831  38.4054607   7.7252510  16.9921762
  37.2523877   7.2959192  17.8742057  38.0410736   6.3269684  19.6262628
  38.8603625   6.8213763  19.6497466  38.3147543   5.4101652  19.5980196
  35.8061582  13.2988187  14.0762029  35.6716050  12.5388588  13.5100027
  35.3893645  14.0229087  13.6090818  38.9630708  14.1957504  14.2880471
  38.8463092  15.1402937  14.1859162  38.1423155  13.8931066  14.6766270
  45.8199042   7.7288665  25.8246966  46.6890202   7.9029318  25.4633601
  45.3405794   8.5483082  25.7022695  39.9885222  14.8485766  17.5036400
  40.8912469  14.8809377  17.8202895  39.7622593  13.9186217  17.5182736
  41.7438824  13.6016753  14.1646478  40.7934455  13.6018614  14.0510851
  42.0471311  12.8549487  13.6482513  50.1468040  21.2440196  11.1550656
  49.5832905  21.1530133  10.3866944  50.0320435  20.4240100  11.6353149
  47.6932472  22.7391387  13.9934877  48.4853764  22.3982212  13.5781176
  47.9329122  22.8486362  14.9137030  49.6523226  22.0000301   6.8652256
  50.4254102  21.4529288   6.7265131  50.0048625  22.8644550   7.0766717
  51.4908268  23.3276683  20.0719155  51.1998134  24.2322314  19.9565821
  52.1265253  23.3693210  20.7863225  52.4164475  20.7053531  16.6620515
  53.0128047  20.4809554  15.9477478  52.4739447  19.9638277  17.2645962
  49.9010635  19.4651895  13.1005653  48.9761131  19.3328109  13.3083345
  50.1495048  20.2446114  13.5975595  47.2619446  19.1085169  13.9349442
  47.3911827  19.3619648  14.8488854  46.5816897  19.7012877  13.6154097
  51.4318933  29.7782419  10.0339916  51.3542963  30.7290244  10.1128397
  50.8280577  29.4328291  10.6914843  52.1782535  19.7595738  22.2519250
  52.9197220  20.2980781  21.9754074  51.4719521  20.3862026  22.4090802
  53.5294651  22.2000477  11.8693786  53.9932997  22.4788180  11.0798408
  53.2651450  21.2983921  11.6866876  50.4218733  21.7471958  14.8073549
  50.9920090  22.1759227  14.1691033  51.0126844  21.4654543  15.5057735
  50.9143899  16.9135386  23.0534560  50.2842560  17.5951667  23.2869957
  50.8079987  16.8018467  22.1087698  46.2088872  16.5807182  13.9800484
  45.4187925  16.8364710  13.5040595  46.7000119  17.3955520  14.0852525
  48.1603617  16.9451761  10.9383961  47.3634780  17.0570455  11.4567457
  47.9329209  17.2838413  10.0724852  53.9909285  23.4696464  18.8866476
  54.0553717  23.9316871  19.7224648  53.2820208  22.8393829  19.0148786
  44.4926574  16.8337672  16.4115475  44.7434613  17.7184682  16.6773051
  45.0286123  16.6542274  15.6390567  53.7057302  25.1364572   8.7545456
  53.5702977  25.9816107   9.1830304  54.2467115  25.3383849   7.9911390
  50.1924642  11.2156152  25.4159811  49.7991587  10.6622350  26.0907456
  51.0090782  11.5266730  25.8066329  47.1586700  22.6540010   9.3273381
  47.6711220  23.4483260   9.4778946  47.8109412  21.9566300   9.2606983
  48.9681584  25.7705766  11.4096134  49.1448213  26.6923731  11.2217118
  49.7638418  25.4564185  11.8390514  53.1092603  12.6314031  23.0080068
  53.8502316  13.2321184  22.9284530  53.3410526  11.8891668  22.4498110
  48.2533941  17.8170398  21.2858298  48.1387456  16.9155655  21.5865396
  47.3978459  18.0634095  20.9343114  50.0912900  27.2883940  17.4106477
  50.6420325  27.1601003  16.6383471  49.2524376  27.5878829  17.0601369
  45.1235616  20.9828664  10.1032952  45.9610838  21.3925672   9.8866659
  45.3013884  20.0428106  10.0733146  52.3789192  11.1138518  14.2559765
  53.2442189  10.9181327  13.8965654  52.4466701  10.8848870  15.1829121
  49.9851511  13.3440726  11.6276131  50.5595263  13.1215908  10.8949324
  50.5722494  13.4129421  12.3804733  45.1461787  18.3219379  10.7743685
  44.9486187  17.7288740  10.0494752  44.5908451  18.0171590  11.4919624
  53.1258511  18.2142486  12.8938278  53.1807121  17.2616322  12.8180755
  52.3149713  18.3701925  13.3779577  51.0650871  16.8319546  10.6528657
  50.2518737  17.1313716  11.0593849  51.5609865  16.4375234  11.3703139
  53.2159449  26.8277303  12.5862922  53.1735628  27.0538149  11.6571454
  54.1322148  26.5940677  12.7348723  50.5564946  14.4037901  16.2689892
  51.1964325  14.2626660  15.5712855  49.7242476  14.1172414  15.8928494
  51.3325250  23.7040332  12.3824885  52.1265848  23.2090652  12.1807460
  50.6216942  23.1758195  12.0192590  47.6408013  17.8483413   8.4584637
  46.7105601  17.7867869   8.6754599  47.7365485  17.3259366   7.6621278
  47.5593562  14.3738226  11.0462879  47.8200380  15.2883559  10.9372039
  48.3810735  13.9062669  11.1959492  49.0318488  15.7875983  18.2161703
  49.7041541  15.5793345  17.5674352  48.2048274  15.5898069  17.7766936
  53.9096526  24.2769354  16.0622722  53.7707611  23.9088138  16.9348660
  53.1211122  24.7916993  15.8906679  49.4345985  19.0618586  18.9764141
  49.2965783  18.3298825  19.5775680  50.3450908  18.9727486  18.6948328
  52.0628285  18.7738546  18.4647820  52.7727904  18.1331738  18.4234439
  52.0197594  19.0251440  19.3874001  50.7757219  15.7603763  20.2843460
  50.2394576  15.3094502  20.9365056  50.1873928  15.8949672  19.5413924
  49.0705763  32.5267813  14.1788118  49.3102361  33.1586337  14.8567137
  48.2274959  32.1755853  14.4653478  41.7061619  20.0069575  12.9411430
  42.3932658  19.6931305  12.3532446  41.5509747  20.9110939  12.6678682
  46.5096341  14.8959771  17.3696454  46.4254529  14.2885441  16.6346864
  45.6879047  15.3868789  17.3705951  53.5833625  28.3346935  16.5829622
  53.5103796  29.1401907  17.0948927  53.1411018  28.5338901  15.7577644
  53.3723404  27.5718705  10.0932444  52.5890926  28.1140385  10.1870668
  54.0716150  28.0892685  10.4926685  53.2655023  15.5230718  12.4638334
  52.8952811  14.9701758  13.1519239  53.7614116  14.9188851  11.9113334
  51.0944222  25.9828213  19.5593352  51.7953681  26.6164696  19.7122746
  50.6239337  26.3242944  18.7988991  46.6911940  25.5164568  16.4924454
  47.2765377  24.7708256  16.6252359  46.4936778  25.8268524  17.3761118
  49.5450595  28.5515815  11.5086897  48.8760970  29.0361943  11.0250937
  49.4063465  28.7985036  12.4230275  41.2829595  18.0870168  15.2128898
  41.3213694  17.5533759  16.0066016  40.7769888  17.5605373  14.5939875
  53.6855864  30.5859559  18.1069555  54.2374172  30.7491180  18.8718640
  54.0262057  31.1763996  17.4349580  48.6620357  12.9334708  18.7091440
  48.7261683  13.7949539  18.2968838  48.5987477  12.3208710  17.9763798
  48.1372630  15.0057841  22.3564474  48.7644668  14.6234918  22.9701999
  47.2800548  14.7872043  22.7220167  44.9138172  16.8134270   8.2882829
  45.2091613  15.9044949   8.2349883  44.0126208  16.7922010   7.9663831
  48.4432419  14.8890267  14.2710378  47.7219005  15.5026234  14.1317851
  49.2325675  15.4248031  14.1927024  51.2458733  12.2244693  20.5451029
  51.7693135  12.4706990  21.3077339  51.0271066  13.0564728  20.1254167
  46.6426014  14.4948368   8.4122154  46.3138720  13.6145747   8.2297260
  46.9965385  14.4396036   9.2998543  52.4511278  13.1658388  18.2300700
  52.1108098  12.3666201  18.6321380  51.7450284  13.4660099  17.6577533
  53.1027750  10.2507701  16.6828023  53.9253819   9.7768179  16.5606913
  53.3465813  11.0298184  17.1826709  50.6266328  16.9426821  14.4920002
  50.4810909  17.2567124  15.3844283  50.1491532  17.5611722  13.9390900
  52.4862711  13.9329369  14.5400891  52.4724280  13.0370463  14.2033189
  53.2035139  13.9400033  15.1739177  45.1011991  19.4832166  17.4307663
  44.5565459  20.2591974  17.5627937  45.9791340  19.8302970  17.2726784
  45.8878012  18.6102062  20.3237820  45.1459748  18.7584697  20.9102450
  45.5670757  18.8710328  19.4604569  46.3334626  26.4967491  12.3548214
  47.1592646  26.1971263  11.9746858  45.9828678  25.7275113  12.8038003
  51.3016159  25.8493959  14.4245888  50.6796169  25.1864664  14.1248116
  51.9721026  25.8755091  13.7419536  44.5343231  24.4153817  13.3137148
  43.6975139  23.9875992  13.1321149  44.5066877  24.6086261  14.2507939
  51.3740687  14.3275747  24.0178394  51.4228842  15.2037870  23.6356163
  51.9163201  13.7853140  23.4450037  50.8629666  24.3997882   7.9004348
  51.0117787  25.0833347   7.2471021  51.6696110  24.3802972   8.4153804
  53.6039975  15.0807119  20.7724752  52.7343285  15.3740685  20.5007341
  53.8399456  15.6647564  21.4932016  48.6182299  20.4263060   8.9065417
  48.3728341  19.5225390   9.1045627  48.7878214  20.4280210   7.9644895
  43.8492728  17.4763165  13.0986080  43.5295512  16.6228473  12.8060454
  43.3026156  17.6911743  13.8544047  47.6272635  20.1925606  16.8155586
  47.8458645  21.1242714  16.8343620  48.0398409  19.8333581  17.6010390
  52.5000501  15.7658812  26.2058335  52.3997228  16.7153169  26.1370426
  52.2822043  15.4377051  25.3334405  43.7180988  21.0966077  15.0679201
  43.0244459  20.6820030  14.5549156  44.4653979  21.1386613  14.4712620
  52.3631771  19.1955951  25.0223397  51.8798852  19.9956311  25.2287286
  52.4492710  19.2063896  24.0690841  45.6317730  21.0284331  12.9445216
  45.6088418  21.1272018  11.9927099  45.9418367  21.8749481  13.2662382
  48.2905108  23.0860486  17.0591831  49.2448362  23.0544428  16.9921762
  48.0917632  22.6251109  17.8742057  48.8804490  21.6561602  19.6262628
  49.6997379  22.1505680  19.6497466  49.1541298  20.7393570  19.5980196
  46.6455337  28.6280105  14.0762029  46.5109805  27.8680506  13.5100027
  46.2287399  29.3521005  13.6090818  49.8024463  29.5249422  14.2880471
  49.6856847  30.4694855  14.1859162  48.9816909  29.2222984  14.6766270
  44.1339405  15.9899736  20.3254826  44.7798268  15.4798689  20.8142051
  43.9256556  16.7268417  20.8998251  50.8278977  30.1777684  17.5036400
  51.7306224  30.2101294  17.8202895  50.6016347  29.2478135  17.5182736
  52.5832579  28.9308671  14.1646478  51.6328210  28.9310532  14.0510851
  52.8865065  28.1841405  13.6482513  48.4736896  13.1367353  24.4229840
  49.3368357  12.7804157  24.6333164  47.9002306  12.7981247  25.1105244
  52.5455373  35.3361492  12.9411430  53.2326413  35.0223222  12.3532446
  52.3903502  36.2402857  12.6678682  52.1223349  33.4162086  15.2128898
  52.1607449  32.8825676  16.0066016  51.6163642  32.8897291  14.5939875
   3.2796145  20.2651171  39.6300120   2.5259853  19.6958569  39.4744125
   3.4143686  20.2313836  40.5770755   3.6902560  20.4226781  42.3620365
   4.4205948  20.1612069  42.9228068   3.0809505  19.6855503  42.4022433
   1.7717857  18.5634644  42.9594816   1.0451020  18.4290609  42.3511307
   1.3565144  18.8711472  43.7651534   1.6966725  18.0912697  39.0871669
   1.1366283  18.1605886  39.8603231   1.0910228  17.9153681  38.3671165
   3.2822743  34.7669211  41.7801624   3.9201153  34.6475958  41.0764964
   3.1643586  35.7150055  41.8389577   1.5298824  40.2403083  33.0174505
   0.8786803  40.8257163  32.6308519   2.3243186  40.7709278  33.0769542
   2.8364011  32.4920665  38.8554832   3.6227101  32.0740088  38.5045249
   3.1002716  33.3966757  39.0236481   3.0074089  37.9293515  33.5543489
   2.3719922  38.0028141  34.2664394   2.6771495  38.5187114  32.8762568
   8.2372439  32.4295898  39.7587811   8.9697611  31.8595115  39.9925640
   7.4811794  32.0417498  40.1994317   5.7597859  26.1417472  44.2182420
   5.4281184  27.0112883  43.9943635   5.1643472  25.8253756  44.8976450
   5.6526522  30.8612558  41.2975770   4.7443400  30.7927966  41.0034531
   5.6014118  31.3384503  42.1257595   7.5188169  29.0628996  43.0753644
   6.8762549  29.3561530  42.4293438   7.0143097  28.9481917  43.8806840
   5.1728332  32.8092170  33.7639503   6.0846188  33.0419556  33.5887200
   4.6637979  33.3929214  33.2014581   3.7797915  37.7917988  41.1553084
   3.1506777  37.9563702  40.4529152   3.3923577  38.2059598  41.9264048
   7.6587147  38.7272426  38.5097448   6.9738185  39.1071327  37.9594481
   7.7430996  39.3367753  39.2429396   2.9599615  29.8293773  46.4315526
   2.7160547  30.5835833  45.8949802   3.2359546  30.2079120  47.2662773
   4.9138078  36.3732385  45.1092792   5.1254973  37.0164145  44.4327173
   4.8667826  35.5394702  44.6414722   2.5164307  28.9850206  42.0129364
   1.6548786  29.2831459  42.3046101   2.5426742  29.2020604  41.0810396
   6.0283906  39.2504340  43.2815149   6.8501350  38.8484528  42.9997830
   6.0246309  39.1472575  44.2331265  14.1189899  35.5943089  39.6300120
  13.3653608  35.0250487  39.4744125  14.2537440  35.5605753  40.5770755
   2.8580991  23.9887053  43.8353733   2.5145260  24.8788695  43.7592844
   3.2259953  23.7988711  42.9723318   2.8231273  33.9795664  32.3426168
   2.3077897  34.7500269  32.5814556   2.5508582  33.3060800  32.9659230
   1.9377531  26.3591708  41.8002966   1.4342327  26.3221843  40.9870772
   2.2308138  27.2684451  41.8599623   7.7965548  36.7328019  34.2779342
   7.0194990  36.3939178  33.8334504   8.4757029  36.7380642  33.6034307
   2.6117577  31.8522756  34.1685949   2.3067712  32.1668905  35.0196093
   3.5648019  31.9304176  34.2113282   6.0356855  36.2062000  40.9345950
   5.3780529  36.8961261  41.0226078   6.8397254  36.5958432  41.2779936
   4.8462313  34.5606373  38.9849891   5.3594195  35.1936365  39.4871601
   5.4963537  33.9607568  38.6193251   2.1084688  44.5390697  31.7410563
   1.4346386  44.8422394  32.3495520   2.4950510  45.3419777  31.3916020
   2.1078192  33.4347244  36.3610912   2.8550011  33.9468641  36.0518034
   2.3769781  33.1131297  37.2215306   5.6124110  39.5412374  37.1129034
   5.1586437  38.7003284  37.1694225   4.9818076  40.1773773  37.4503814
   4.5557029  30.4704360  38.3429702   3.8179786  29.9581746  38.6739944
   4.8083803  30.0304742  37.5312978   4.0557049  41.3788871  38.0478852
   4.3480023  41.9393928  37.3291218   4.5655669  41.6717432  38.8032011
   4.6568656  23.2480612  38.9371471   4.9627533  22.3877976  38.6497386
   5.3821261  23.8398232  38.7370465   2.4656308  32.6253290  46.0352935
   2.8205695  32.8524763  46.8947400   3.1128439  32.9571666  45.4130190
   8.1954045  35.7471725  36.7402264   8.0571943  35.9373321  35.8123453
   7.8390264  36.5091108  37.1970315   8.2223424  37.8148252  41.7513535
   8.6559931  37.7223542  42.5996589   8.9355005  37.7905753  41.1133551
   9.0838974  37.8571953  44.2846421   9.2774864  38.7617764  44.5305696
   8.9839592  37.3979372  45.1185006   1.2632966  38.9842876  40.0020943
   0.9282798  38.9443646  40.8978593   0.7636912  38.3187592  39.5291353
   4.1992158  36.3298910  30.2758003   3.5821328  35.6045738  30.1791055
   3.7308646  37.0908270  29.9325077   2.4851280  28.7105254  39.2876033
   2.9819979  27.9575216  38.9677103   1.7138261  28.7469571  38.7219242
  10.3381037  34.4145620  40.9294324  10.3270913  35.2970335  40.5588257
   9.4698416  34.0617170  40.7348861   3.5681060  37.4676941  36.8614456
   2.6337339  37.5878404  36.6919161   3.7457729  36.5649408  36.5974466
   6.9553612  33.3094261  37.3964490   7.4214064  34.1422252  37.3224793
   7.4061112  32.8439242  38.1009749   5.0229843  39.6538082  34.3950642
   5.2989687  39.5394677  35.3044517   4.1534341  39.2555567  34.3562816
   4.9270274  25.6774848  41.4355392   4.0133354  25.9079074  41.6037599
   5.3563376  25.7613292  42.2869424   4.6976733  33.8664740  43.9355286
   4.0448183  34.1140647  43.2807739   5.0757113  33.0528878  43.6017763
   1.6583907  43.9024433  38.0383456   1.8406301  43.0846089  38.5011208
   2.4816893  44.1192125  37.6008346   1.9926072  42.8292618  35.2998505
   2.5213839  42.3185072  34.6868667   2.2554292  42.5135148  36.1644038
   4.6890384  41.6642474  43.2722171   3.7420720  41.5447825  43.2000498
   5.0373158  40.7764972  43.3548433   1.6936818  41.4595190  39.4726523
   1.5461780  40.5311897  39.6534093   2.5190311  41.4815281  38.9883599
   5.2970940  42.2823749  40.5591396   6.2217487  42.0766610  40.4215847
   5.1286243  42.0340150  41.4680738   1.6898332  29.3133028  34.4658641
   1.9061946  30.1957665  34.1647469   1.2092399  28.9219241  33.7364283
   5.0866256  42.8009416  35.9153488   5.2603133  42.2355839  35.1627340
   5.5795147  43.6010311  35.7332977   0.5622023  25.8290579  39.4964565
   0.5843719  25.8929913  38.5416544   0.9790082  24.9895088  39.6905071
  10.9405647  35.5645839  37.5343787  11.3836793  34.8153164  37.1362911
  10.0632157  35.5555975  37.1517519   6.0741428  42.1176181  33.0150386
   6.7692333  42.7382873  33.2337700   6.4164578  41.2671532  33.2902764
   7.9732851  39.5675886  34.5437717   8.4984175  39.9063159  33.8187037
   7.8855204  38.6322901  34.3600851   7.7824633  37.0501256  47.1621643
   7.8322637  36.8851263  48.1037166   7.6738556  36.1828515  46.7719524
   9.2842829  39.4698198  47.4063665   8.9927638  39.8328178  48.2427126
   8.6714961  38.7565206  47.2276997  10.4838512  37.0351077  39.9266235
  11.3185403  37.4740881  40.0903795  10.6197640  36.5589731  39.1074481
   7.5330018  34.5930812  45.8743723   8.0084139  34.7858459  45.0662574
   6.6095583  34.6489998  45.6287106   2.1110234  26.6278656  44.8399557
   2.6292178  27.3639683  44.5146045   1.7565367  26.9342649  45.6746316
   2.3622828  23.0478938  40.3600453   2.6424582  22.3802127  40.9860880
   3.1473435  23.2408034  39.8475117   6.2331687  31.4696572  44.1072028
   7.1849109  31.5694670  44.1284252   6.0635137  30.6774841  44.6170113
   4.2546066  28.5552155  44.2931429   3.6595998  28.8357168  43.5977918
   3.9695763  29.0446056  45.0648170   3.3853557  42.5075082  33.0534062
   4.3184230  42.4420644  33.2566937   3.2976769  43.3431349  32.5948594
   6.0141573  41.8240953  30.0138009   5.9355205  41.4900816  30.9073767
   6.8351240  42.3162721  30.0129482   8.7119764  34.6902692  43.2214328
   8.6796084  33.7518693  43.4074012   9.3220388  34.7686729  42.4880153
   8.8614253  31.4813735  43.2672611   8.3453302  30.6972192  43.0802540
   9.7454201  31.1532452  43.4319131   6.5224980  25.2254751  39.2268424
   6.3249801  24.9169839  40.1111756   7.1324685  25.9516390  39.3566354
  14.5296314  35.7518699  42.3620365  15.2599703  35.4903987  42.9228068
  13.9203260  35.0147421  42.4022433  12.6111611  33.8926561  42.9594816
  11.8844775  33.7582526  42.3511307  12.1958898  34.2003390  43.7651534
   2.2798626  25.1063658  36.9764955   2.8329665  25.5259111  37.6354978
   2.5168713  24.1799406  37.0187911   5.6577433  27.2164183  36.4843619
   5.0776103  27.8748987  36.1021672   5.3913366  26.3941528  36.0731037
   4.1081000  26.6169241  38.6864940   4.6080778  26.7285775  37.8779259
   4.7516608  26.3130294  39.3265748   4.4402312  29.3764273  35.5399968
   3.5528167  29.6613924  35.3220162   4.8556301  29.2158037  34.6927244
   7.7916848  29.4010794  39.2554307   8.5677238  29.8907247  39.5278924
   7.0664982  29.8268849  39.7126176  10.2289406  30.1138414  40.3128247
  10.8233897  29.8734150  39.6021556  10.3015990  29.3945544  40.9401784
   3.5845525  39.1408948  29.6347988   4.2881375  39.3458951  30.2505643
   2.8608174  39.7085710  29.8997071   4.4143335  34.8918809  35.7550258
   4.3578537  35.3487361  34.9157890   4.9671678  34.1309494  35.5773101
   8.2248141  30.6808541  36.5800377   7.9685075  30.2805177  37.4108585
   7.6001009  31.3952335  36.4550516  12.5360479  33.4204614  39.0871669
  11.9760037  33.4897804  39.8603231  11.9303982  33.2445599  38.3671165
   5.4932222  39.5791477  31.6846448   6.3277826  39.1472676  31.5023922
   5.3316565  39.4073491  32.6123342   5.1478115  36.0823591  33.0502787
   5.0926918  35.9167862  32.1091231   4.5224170  36.7899623  33.2064977
   2.2726359  22.1774476  36.8834042   1.5058755  21.6232963  37.0290724
   2.6837064  22.2496345  37.7448194   8.6314483  48.8176804  31.0480089
   8.8840004  48.2958325  30.2863552   7.6939042  48.6542949  31.1506773
  13.6757766  47.8212582  38.8554832  14.4620855  47.4032005  38.5045249
  13.9396470  48.7258674  39.0236481  19.0766193  47.7587815  39.7587811
  19.8091365  47.1887032  39.9925640  18.3205549  47.3709416  40.1994317
  16.5991613  41.4709390  44.2182420  16.2674938  42.3404801  43.9943635
  16.0037227  41.1545674  44.8976450  10.3347800  45.2104957  31.9512502
  10.5022202  46.0785193  32.3182973  10.1444969  45.3732238  31.0273791
  16.4920277  46.1904476  41.2975770  15.5837154  46.1219884  41.0034531
  16.4407873  46.6676421  42.1257595  10.3137021  47.6662614  32.9359169
  10.1936646  48.1119665  33.7744649   9.6189609  48.0147932  32.3772707
  18.3581923  44.3920914  43.0753644  17.7156303  44.6853447  42.4293438
  17.8536852  44.2773834  43.8806840  16.0122087  48.1384087  33.7639503
  16.9239943  48.3711474  33.5887200  15.5031734  48.7221132  33.2014581
  10.6493925  47.4981322  44.7734352  11.4955120  47.9220735  44.9169001
  10.5892562  46.8414946  45.4672915  13.7993370  45.1585690  46.4315526
  13.5554302  45.9127751  45.8949802  14.0753300  45.5371038  47.2662773
  13.3558062  44.3142123  42.0129364  12.4942541  44.6123377  42.3046101
  13.3820496  44.5312522  41.0810396   9.1088517  48.9807466  35.2292734
   9.8112560  49.4328510  35.6966661   8.7769146  48.3391285  35.8572628
  24.9583654  50.9235007  39.6300120  24.2047362  50.3542405  39.4744125
  25.0931195  50.8897671  40.5770755  13.6974745  39.3178971  43.8353733
  13.3539015  40.2080612  43.7592844  14.0653708  39.1280628  42.9723318
  13.6625028  49.3087582  32.3426168  13.1471651  50.0792186  32.5814556
  13.3902336  48.6352718  32.9659230  11.2472139  44.1537283  37.4011407
  10.3913735  43.7644133  37.2217045  11.6599091  44.2329243  36.5411192
  12.7771286  41.6883626  41.8002966  12.2736081  41.6513761  40.9870772
  13.0701893  42.5976369  41.8599623   9.0214172  41.7722356  40.8069148
   9.8867168  41.5765164  40.4475038   9.0891680  41.5432707  41.7338505
  18.6359302  52.0619936  34.2779342  17.8588745  51.7231096  33.8334504
  19.3150783  52.0672560  33.6034307  13.4511331  47.1814674  34.1685949
  13.1461467  47.4960823  35.0196093  14.4041773  47.2596094  34.2113282
   6.6276491  44.0024564  38.1785515   7.2020243  43.7799745  37.4458708
   7.2147473  44.0713258  38.9314116  15.6856068  49.8898290  38.9849891
  16.1987950  50.5228282  39.4871601  16.3357292  49.2899486  38.6193251
   6.9546078  46.0329025  32.1981400   6.1183390  46.3703711  32.5190675
   6.8150847  45.8978004  31.2608537   8.9299158  40.8765812  36.9060584
   8.2763571  40.5614830  36.2817199   8.8879632  40.2541553  37.6320407
  12.1636899  47.3647746  41.2308232  11.2459460  47.5862693  41.0729920
  12.5797042  47.4394056  40.3719939  12.9471946  48.7639162  36.3610912
  13.6943765  49.2760559  36.0518034  13.2163536  48.4423214  37.2215306
  15.3950784  45.7996278  38.3429702  14.6573540  45.2873664  38.6739944
  15.6477557  45.3596660  37.5312978  15.4962411  38.5772530  38.9371471
  15.8021288  37.7169893  38.6497386  16.2215016  39.1690150  38.7370465
   9.7683491  48.8726323  39.4447662   9.8232100  47.9200159  39.3690138
   8.9574693  49.0285762  39.9288960   7.7075851  47.4903383  37.2038041
   6.8943716  47.7897553  37.6103233   8.2034845  47.0959071  37.9212523
  13.3050062  47.9545207  46.0352935  13.6599450  48.1816680  46.8947400
  13.9522193  48.2863584  45.4130190  19.0347799  51.0763643  36.7402264
  18.8965698  51.2665239  35.8123453  18.6784018  51.8383026  37.1970315
   7.1989925  45.0621738  42.8199276   7.8389305  44.9210497  42.1222239
   6.3667456  44.7756252  42.4437878   4.2018542  45.0322063  37.5972263
   4.4625359  45.9467396  37.4881423   5.0235714  44.5646506  37.7468875
  11.5769039  43.0721761  46.7836748  10.9296954  43.7711711  46.6901224
  12.3470055  43.5057905  47.1512996   6.8284458  45.8776252  29.3979307
   5.9513924  45.7565053  29.0341554   7.3042211  45.0862330  29.1458196
  13.3245034  44.0397172  39.2876033  13.8213734  43.2867134  38.9677103
  12.5532016  44.0761488  38.7219242  21.1774791  49.7437537  40.9294324
  21.1664668  50.6262253  40.5588257  20.3092171  49.3909088  40.7348861
   9.9080003  46.1814555  39.0147717   9.5377790  45.6285595  39.7028623
  10.4039095  45.5772688  38.4622718  17.7947366  48.6386178  37.3964490
  18.2607818  49.4714170  37.3224793  18.2454867  48.1731160  38.1009749
  15.7664029  41.0066765  41.4355392  14.8527109  41.2370992  41.6037599
  16.1957130  41.0905209  42.2869424  15.5370487  49.1956657  43.9355286
  14.8841938  49.4432565  43.2807739  15.9150867  48.3820795  43.6017763
   5.0857399  45.5474104  40.8219761   4.3643985  46.1610072  40.6827235
   5.8750655  46.0831869  40.7436407   3.2850993  45.1532205  34.9631538
   2.9563700  44.2729584  34.7806644   3.6390364  45.0979874  35.8507927
   6.3992817  45.4405175  35.3307015   6.7388889  45.9691096  34.6085624
   6.8464937  45.7785581  36.1065582   9.0936257  43.8242225  44.7810084
   8.7533078  43.0250038  45.1830763   8.3875264  44.1243936  44.2086917
   9.7452729  40.9091538  43.2337407  10.5678798  40.4352016  43.1116297
   9.9890793  41.6882022  43.7336093   8.3860964  43.9379796  33.5300308
   9.1069326  44.3161049  33.0264025   7.7626268  44.6568673  33.6335286
  12.5292087  44.6424945  34.4658641  12.7455701  45.5249583  34.1647469
  12.0486154  44.2511159  33.7364283   7.2691308  47.6010658  41.0429385
   7.1235889  47.9150962  41.9353667   6.7916512  48.2195559  40.4900284
   9.1287691  44.5913206  41.0910275   9.1149260  43.6954300  40.7542573
   9.8460119  44.5983870  41.7248561  10.9813822  45.0250547  43.1363402
  10.7231599  45.9467617  43.1347733  10.4498862  44.6280981  43.8263866
   8.5324587  43.4727587  36.3597845   8.6540498  42.5444233  36.5588732
   8.2426629  43.4866273  35.4476160  11.4015777  41.1582497  39.4964565
  11.4237474  41.2221830  38.5416544  11.8183836  40.3187006  39.6905071
  21.7799401  50.8937757  37.5343787  22.2230547  50.1445082  37.1362911
  20.9025912  50.8847893  37.1517519  18.6218387  52.3793174  47.1621643
  18.6716392  52.2143181  48.1037166  18.5132310  51.5120433  46.7719524
  21.3232266  52.3642995  39.9266235  22.1579158  52.8032799  40.0903795
  21.4591395  51.8881648  39.1074481  18.3723772  49.9222730  45.8743723
  18.8477894  50.1150376  45.0662574  17.4489337  49.9781916  45.6287106
  12.9503989  41.9570573  44.8399557  13.4685932  42.6931600  44.5146045
  12.5959121  42.2634567  45.6746316   4.5302926  46.8175255  32.9560962
   3.8372171  46.8919610  32.3000998   4.2854678  46.0535598  33.4782479
  13.2016583  38.3770856  40.3600453  13.4818337  37.7094045  40.9860880
  13.9867190  38.5699952  39.8475117  17.0725441  46.7988490  44.1072028
  18.0242864  46.8986588  44.1284252  16.9028892  46.0066759  44.6170113
  15.0939821  43.8844073  44.2931429  14.4989753  44.1649086  43.5977918
  14.8089517  44.3737974  45.0648170  19.5513519  50.0194610  43.2214328
  19.5189839  49.0810610  43.4074012  20.1614143  50.0978646  42.4880153
  11.3896850  48.8890663  29.2641532  12.3355954  48.7596871  29.3329950
  11.0111095  48.1505325  29.7410960  19.7008007  46.8105653  43.2672611
  19.1847056  46.0264110  43.0802540  20.5847956  46.4824370  43.4319131
  17.3618734  40.5546669  39.2268424  17.1643555  40.2461757  40.1111756
  17.9718440  41.2808308  39.3566354  25.3690069  51.0810616  42.3620365
  26.0993457  50.8195905  42.9228068  24.7597014  50.3439338  42.4022433
  23.4505366  49.2218479  42.9594816  22.7238529  49.0874444  42.3511307
  23.0352653  49.5295308  43.7651534   9.5739767  46.8140639  29.1996417
   8.6671222  46.5173752  29.2759131   9.8515748  46.5170457  28.3330703
  11.1901833  41.3577529  35.3540658  10.3802561  41.0124614  35.7295905
  11.8786250  41.0485072  35.9428270  13.1192381  40.4355576  36.9764955
  13.6723420  40.8551029  37.6354978  13.3562467  39.5091324  37.0187911
   8.3438552  43.6727574  29.3408396   9.2057716  43.9982473  29.6004214
   8.5288896  42.8859070  28.8281462  16.4971188  42.5456101  36.4843619
  15.9169857  43.2040905  36.1021672  16.2307121  41.7233445  36.0731037
  14.9474754  41.9461158  38.6864940  15.4474533  42.0577693  37.8779259
  15.5910362  41.6422211  39.3265748  15.2796066  44.7056191  35.5399968
  14.3921921  44.9905842  35.3220162  15.6950055  44.5449954  34.6927244
  18.6310602  44.7302712  39.2554307  19.4070992  45.2199165  39.5278924
  17.9058736  45.1560766  39.7126176  21.0683161  45.4430331  40.3128247
  21.6627652  45.2026067  39.6021556  21.1409744  44.7237462  40.9401784
  15.2537090  50.2210727  35.7550258  15.1972291  50.6779278  34.9157890
  15.8065432  49.4601412  35.5773101  19.0641896  46.0100459  36.5800377
  18.8078830  45.6097095  37.4108585  18.4394764  46.7244253  36.4550516
  23.3754234  48.7496532  39.0871669  22.8153791  48.8189721  39.8603231
  22.7697737  48.5737517  38.3671165   9.2967995  40.9123617  32.6288105
   9.2846664  41.8565457  32.7856376  10.1891416  40.7293763  32.3347567
  13.1120114  37.5066394  36.8834042  12.3452510  36.9524881  37.0290724
  13.5230819  37.5788263  37.7448194  26.3356165  53.9064448  38.9371471
  26.6415042  53.0461811  38.6497386  27.0608770  54.4982068  38.7370465
  24.0410337  53.7062774  40.3600453  24.3212091  53.0385963  40.9860880
  24.8260944  53.8991869  39.8475117  23.9513868  52.8358312  36.8834042
  23.1846264  52.2816798  37.0290724  24.3624573  52.9080180  37.7448194
   3.2822744  11.7731333  28.5046931   3.9201154  11.6538081  27.8010271
   3.1643587  12.7212177  28.5634883   0.5732234  12.8793613  34.3994661
   0.5620874  12.4846411  33.5275165   0.7352873  12.1459686  34.9928433
   1.5298825  17.2465206  19.7419812   0.8786805  17.8319286  19.3553825
   2.3243188  17.7771400  19.8014849   2.8364013   9.4982787  25.5800139
   3.6227102   9.0802210  25.2290556   3.1002717  10.4028879  25.7481787
   3.0074090  14.9355637  20.2788796   2.3719923  15.0090264  20.9909701
   2.6771496  15.5249236  19.6007875   8.2372440   9.4358020  26.4833118
   8.9697612   8.8657237  26.7170947   7.4811796   9.0479621  26.9239623
   2.2529380  15.3492140  30.3423639   1.9530103  16.2517179  30.2339446
   1.9080439  15.0824324  31.1944792   5.6526524   7.8674681  28.0221076
   4.7443401   7.7990089  27.7279837   5.6014119   8.3446626  28.8502902
   7.5188170   6.0691119  29.7998950   6.8762550   6.3623652  29.1538745
   7.0143098   5.9544039  30.6052147   5.1728334   9.8154292  20.4884809
   6.0846190  10.0481679  20.3132507   4.6637981  10.3991336  19.9259888
   3.4569101  14.2378920  34.1246102   3.8652457  13.7961331  33.3800734
   2.7346363  13.6631548  34.3780295   3.7797916  14.7980111  27.8798391
   3.1506778  14.9625825  27.1774459   3.3923578  15.2121720  28.6509355
   7.6587148  15.7334549  25.2342755   6.9738186  16.1133450  24.6839788
   7.7430997  16.3429875  25.9674702   2.9599617   6.8355895  33.1560833
   2.7160549   7.5897956  32.6195108   3.2359547   7.2141243  33.9908080
   4.9138079  13.3794508  31.8338098   5.1254975  14.0226267  31.1572479
   4.8667828  12.5456824  31.3660028   6.0283907  16.2566463  30.0060456
   6.8501351  15.8546650  29.7243137   6.0246310  16.1534697  30.9576571
  14.1189900  12.6005211  26.3545427  13.3653609  12.0312610  26.1989431
  14.2537442  12.5667876  27.3016062   1.1357005  18.0942180  36.1600488
   0.6920859  17.3078559  35.8421393   1.7974218  18.2821331  35.4944379
   3.2338243  18.3744980  34.1881890   3.2156718  19.1953861  33.6962159
   4.1558163  18.2499055  34.4132031   2.8231275  10.9857787  19.0671475
   2.3077898  11.7562391  19.3059862   2.5508583  10.3122923  19.6904536
   7.7965549  13.7390141  21.0024648   7.0194992  13.4001301  20.5579810
   8.4757030  13.7442765  20.3279613   2.6117578   8.8584879  20.8931256
   2.3067713   9.1731028  21.7441399   3.5648020   8.9366299  20.9358589
   6.0356856  13.2124123  27.6591256   5.3780530  13.9023384  27.7471385
   6.8397255  13.6020555  28.0025243   4.8462315  11.5668495  25.7095198
   5.3594196  12.1998487  26.2116908   5.4963538  10.9669691  25.3438558
   2.1084689  21.5452820  18.4655869   1.4346388  21.8484516  19.0740827
   2.4950511  22.3481900  18.1161326   2.1078193  10.4409367  23.0856219
   2.8550012  10.9530764  22.7763341   2.3769783  10.1193419  23.9460612
   5.6124111  16.5474497  23.8374341   5.1586438  15.7065407  23.8939531
   4.9818078  17.1835895  24.1749121   4.5557030   7.4766483  25.0675008
   3.8179787   6.9643869  25.3985251   4.8083804   7.0366864  24.2558285
   4.0557050  18.3850993  24.7724159   4.3480024  18.9456051  24.0536525
   4.5655671  18.6779554  25.5277318   2.4656309   9.6315412  32.7598241
   2.8205697   9.8586885  33.6192707   3.1128440   9.9633789  32.1375497
   8.1954046  12.7533848  23.4647570   8.0571945  12.9435444  22.5368760
   7.8390265  13.5153231  23.9215621   8.2223426  14.8210375  28.4758842
   8.6559932  14.7285664  29.3241896   8.9355006  14.7967875  27.8378858
   1.9551320  18.4212469  30.0091942   2.0088343  18.9903405  30.7769658
   1.0866102  18.5914354  29.6445980   9.0838975  14.8634076  31.0091727
   9.2774865  15.7679886  31.2551002   8.9839593  14.4041495  31.8430312
   4.1454084  15.0140818  36.5832608   3.9939590  14.7851370  35.6662692
   4.1358763  15.9711420  36.5963953   1.2632967  15.9904998  26.7266250
   0.9282800  15.9505768  27.6223900   0.7636913  15.3249714  26.2536660
   4.1992159  13.3361033  17.0003309   3.5821329  12.6107861  16.9036362
   3.7308647  14.0970393  16.6570384   5.8546290  18.0459941  34.6609090
   5.7958837  17.3619161  33.9939673   6.2565809  18.7878931  34.2089716
   5.8563698  16.0099525  32.8923069   4.9690476  15.6725447  33.0149468
   6.4262249  15.2782556  33.1291835  10.3381038  11.4207742  27.6539631
  10.3270915  12.3032458  27.2833564   9.4698418  11.0679293  27.4594168
   1.8463535  20.5687811  32.0142471   2.5591507  21.2035276  31.9418373
   1.3553563  20.6651677  31.1982473   3.5681062  14.4739064  23.5859763
   2.6337340  14.5940526  23.4164467   3.7457730  13.5711531  23.3219773
   6.9553613  10.3156383  24.1209797   7.4214065  11.1484375  24.0470100
   7.4061113   9.8501365  24.8255056   5.0229844  16.6600205  21.1195949
   5.2989688  16.5456799  22.0289823   4.1534343  16.2617689  21.0808122
   4.6976734  10.8726862  30.6600592   4.0448184  11.1202770  30.0053045
   5.0757114  10.0591000  30.3263070   1.6583908  20.9086555  24.7628763
   1.8406303  20.0908211  25.2256515   2.4816894  21.1254248  24.3253653
   1.9926074  19.8354740  22.0243811   2.5213840  19.3247195  21.4113973
   2.2554293  19.5197271  22.8889344   4.3397964  17.7474858  37.2372900
   4.8837868  18.3604816  36.7427855   3.7584809  18.3054437  37.7539913
   2.6255477  20.8695576  28.3687928   2.5006617  20.0685316  27.8598873
   3.2834568  21.3641770  27.8801898   4.6890386  18.6704596  29.9967478
   3.7420721  18.5509947  29.9245804   5.0373159  17.7827094  30.0793739
   1.6936819  18.4657313  26.1971830   1.5461781  17.5374020  26.3779400
   2.5190313  18.4877403  25.7128905   5.2970941  19.2885871  27.2836703
   6.2217488  19.0828733  27.1461154   5.1286244  19.0402272  28.1926044
   5.0866257  19.8071539  22.6398794   5.2603135  19.2417961  21.8872647
   5.5795148  20.6072434  22.4578284  10.9405648  12.5707962  24.2589094
  11.3836794  11.8215287  23.8608217  10.0632159  12.5618098  23.8762826
   6.0741430  19.1238303  19.7395692   6.7692334  19.7444996  19.9583007
   6.4164580  18.2733654  20.0148070   7.9732853  16.5738009  21.2683023
   8.4984177  16.9125281  20.5432343   7.8855205  15.6385024  21.0846158
   7.6626759  17.2070912  36.5734221   6.8722302  17.1895051  36.0338721
   7.4260113  17.7459206  37.3283258   7.7824634  14.0563379  33.8866950
   7.8322639  13.8913386  34.8282473   7.6738557  13.1890638  33.4964831
   5.0728396  10.0394307  35.2026256   5.9738259   9.9000772  34.9110254
   5.1476371  10.2048762  36.1424434   9.2842831  16.4760320  34.1308971
   8.9927639  16.8390301  34.9672432   8.6714962  15.7627328  33.9522303
  10.4838513  14.0413200  26.6511542  11.3185404  14.4803004  26.8149102
  10.6197642  13.5651853  25.8319787   7.5330019  11.5992935  32.5989029
   8.0084140  11.7920581  31.7907881   6.6095584  11.6552121  32.3532413
   6.2331688   8.4758695  30.8317335   7.1849111   8.5756793  30.8529559
   6.0635138   7.6836963  31.3415419   3.3853558  19.5137205  19.7779368
   4.3184231  19.4482767  19.9812244   3.2976771  20.3493472  19.3193901
   6.0141574  18.8303075  16.7383316   5.9355206  18.4962939  17.6319074
   6.8351241  19.3224843  16.7374788   8.7119766  11.6964815  29.9459635
   8.6796086  10.7580815  30.1319318   9.3220389  11.7748851  29.2125459
   8.8614254   8.4875858  29.9917918   8.3453303   7.7034315  29.8047847
   9.7454203   8.1594575  30.1564437  14.5296315  12.7580821  29.0865671
  15.2599704  12.4966110  29.6473375  13.9203261  12.0209543  29.1267739
  12.6111613  10.8988684  29.6840123  11.8844776  10.7644649  29.0756614
  12.1958899  11.2065513  30.4896841   4.4402313   6.3826396  22.2645274
   3.5528168   6.6676047  22.0465469   4.8556302   6.2220159  21.4172551
   7.7916849   6.4072917  25.9799613   8.5677239   6.8969369  26.2524230
   7.0664983   6.8330971  26.4371483  10.2289408   7.1200536  27.0373554
  10.8233898   6.8796272  26.3266862  10.3015991   6.4007667  27.6647090
   3.5845526  16.1471071  16.3593294   4.2881376  16.3521073  16.9750950
   2.8608175  16.7147833  16.6242378   4.4143337  11.8980932  22.4795564
   4.3578538  12.3549483  21.6403197   4.9671679  11.1371617  22.3018407
   8.2248142   7.6870664  23.3045684   7.9685077   7.2867299  24.1353892
   7.6001010   8.4014458  23.1795823  12.5360480  10.4266737  25.8116975
  11.9760038  10.4959926  26.5848537  11.9303984  10.2507722  25.0916472
   5.4932224  16.5853600  18.4091754   6.3277828  16.1534798  18.2269229
   5.3316567  16.4135614  19.3368649   5.1478116  13.0885713  19.7748094
   5.0926920  12.9229985  18.8336538   4.5224171  13.7961746  19.9310283
   2.4624023  15.3934625  39.1001656   3.3315183  15.5675277  38.7388291
   1.9830774  16.2129042  38.9777386  14.1216499  27.1023251  28.5046931
  14.7594909  26.9829998  27.8010271  14.0037342  28.0504095  28.5634883
  10.9306205  27.0550679  28.4408456  10.5924717  26.9391744  27.5528991
  11.7995973  26.6541844  28.4209462   6.7893021  28.9086155  24.4305347
   6.2257886  28.8176092  23.6621634   6.6745416  28.0886060  24.9107839
  11.4125988  28.2085531  34.3994661  11.4014629  27.8138329  33.5275165
  11.5746627  27.4751603  34.9928433   4.3357453  30.4037347  27.2689567
   5.1278745  30.0628172  26.8535866   4.5754103  30.5132322  28.1891720
  12.3692579  32.5757123  19.7419812  11.7180559  33.1611204  19.3553825
  13.1636942  33.1063318  19.8014849   6.2948207  29.6646260  20.1406946
   7.0679083  29.1175247  20.0019822   6.6473605  30.5290510  20.3521407
   8.1333249  30.9922643  33.3473845   7.8423115  31.8968273  33.2320512
   8.7690234  31.0339170  34.0617915   9.0589456  28.3699491  29.9375205
   9.6553028  28.1455514  29.2232168   9.1164428  27.6284237  30.5400653
   8.6314484  25.8238926  17.7725396   8.8840005  25.3020448  17.0108859
   7.6939043  25.6605072  17.8752079  13.6757767  24.8274705  25.5800139
  14.4620856  24.4094128  25.2290556  13.9396472  25.7320797  25.7481787
  13.8467845  30.2647555  20.2788796  13.2113678  30.3382182  20.9909701
  13.5165251  30.8541154  19.6007875   8.3510773  27.7267032  19.9749771
   8.2347031  27.0511936  20.6430855   8.4613033  27.2399406  19.1581924
  10.6942314  27.1877180  23.6796460  10.3300521  26.6607800  24.3909381
  11.5509430  26.7975649  23.5062945  16.5991615  18.4771512  30.9427726
  16.2674939  19.3466923  30.7188941  16.0037228  18.1607796  31.6221757
  10.3347801  22.2167079  18.6757809  10.5022203  23.0847316  19.0428280
  10.1444970  22.3794361  17.7519098  13.0923134  30.6784058  30.3423639
  12.7923857  31.5809097  30.2339446  12.7474194  30.4116241  31.1944792
   6.5435616  27.1297855  26.3760343   5.6186112  26.9974069  26.5838035
   6.7920029  27.9092074  26.8730286  16.4920278  23.1966598  28.0221076
  15.5837155  23.1282007  27.7279837  16.4407874  23.6738543  28.8502902
  10.3137022  24.6724737  19.6604475  10.1936647  25.1181787  20.4989956
   9.6189610  25.0210054  19.1018014   3.9044427  26.7731129  27.2104132
   4.0336808  27.0265607  28.1243544   3.2241878  27.3658837  26.8908787
   8.0743914  37.4428378  23.3094607   7.9967944  38.3936204  23.3883087
   7.4705558  37.0974251  23.9669533  10.5661144  24.6156244  35.9655974
   9.7894478  25.1750164  35.9558838  11.2051707  25.1013027  36.4870844
  18.3581924  21.3983037  29.7998950  17.7156305  21.6915570  29.1538745
  17.8536853  21.2835957  30.6052147  16.0122088  25.1446210  20.4884809
  16.9239944  25.3773597  20.3132507  15.5031735  25.7283254  19.9259888
   8.8207516  27.4241697  35.5273941   9.5622200  27.9626741  35.2508764
   8.1144502  28.0507986  35.6845492  14.2962856  29.5670838  34.1246102
  14.7046212  29.1253248  33.3800734  13.5740117  28.9923465  34.3780295
  10.6493926  24.5043444  31.4979659  11.4955121  24.9282858  31.6414308
  10.5892563  23.8477069  32.1918222  14.6191670  30.1272028  27.8798391
  13.9900533  30.2917742  27.1774459  14.2317332  30.5413638  28.6509355
  18.4980902  31.0626466  25.2342755  17.8131940  31.4425368  24.6839788
  18.5824752  31.6721793  25.9674702  13.7993371  22.1647813  33.1560833
  13.5554303  22.9189873  32.6195108  14.0753302  22.5433160  33.9908080
  15.7531834  28.7086425  31.8338098  15.9648729  29.3518185  31.1572479
  15.7061582  27.8748742  31.3660028  13.3558063  21.3204246  28.7374670
  12.4942542  21.6185499  29.0291408  13.3820498  21.5374645  27.8055703
  10.1719632  29.8646436  25.1448476  10.6357978  30.1434139  24.3553098
   9.9076430  28.9629881  24.9621567   7.0643713  29.4117918  28.0828239
   7.6345070  29.8405186  27.4445724   7.6551825  29.1300503  28.7812425
   9.1088518  25.9869589  21.9538041   9.8112562  26.4390632  22.4211967
   8.7769147  25.3453408  22.5817934   7.5568880  24.5781345  36.3289251
   6.9267540  25.2597626  36.5624647   7.4504968  24.4664427  35.3842389
   2.8513852  24.2453141  27.2555175   2.0612906  24.5010670  26.7795285
   3.3425100  25.0601479  27.3607215  16.8677662  31.5858381  30.0060456
  17.6895106  31.1838568  29.7243137  16.8640065  31.4826615  30.9576571
   4.8028598  24.6097721  24.2138651   4.0059761  24.7216415  24.7322147
   4.5754190  24.9484373  23.3479542  10.6334265  31.1342424  32.1621166
  10.6978698  31.5962831  32.9979338   9.9245189  30.5039789  32.2903476
   1.1351555  24.4983632  29.6870165   1.3859594  25.3830642  29.9527741
   1.6711104  24.3188233  28.9145257  10.3482283  32.8010531  22.0300146
  10.2127958  33.6462067  22.4584994  10.8892095  33.0029809  21.2666080
   6.8349623  18.8802111  38.6914502   6.4416568  18.3268310  39.3662146
   7.6515763  19.1912690  39.0821019   3.8011680  30.3185969  22.6028071
   4.3136201  31.1129220  22.7533636   4.4534393  29.6212260  22.5361673
   5.6106565  33.4351726  24.6850825   5.7873193  34.3569690  24.4971808
   6.4063399  33.1210145  25.1145204   9.7517584  20.2959990  36.2834758
  10.4927297  20.8967144  36.2039221   9.9835506  19.5537628  35.7252801
   4.8958922  25.4816358  34.5612988   4.7812437  24.5801615  34.8620087
   4.0403439  25.7280054  34.2097804  11.9750759  33.4234098  36.1600488
  11.5314614  32.6370477  35.8421393  12.6367973  33.6113248  35.4944379
   6.7337881  34.9529900  30.6861167   7.2845306  34.8246963  29.9138161
   5.8949356  35.2524789  30.3356060  14.0731997  33.7036898  34.1881890
  14.0550473  34.5245779  33.6962159  14.9951917  33.5790973  34.4132031
  10.5305052  31.2181027  35.0305398  11.0633388  30.4569316  34.8004706
  10.0019133  30.9254679  35.7729553  13.6974747  16.3241093  30.5599040
  13.3539016  17.2142735  30.4838150  14.0653709  16.1342751  29.6968625
   1.7660597  28.6474624  23.3787642   2.6035819  29.0571632  23.1621350
   1.9438865  27.7074066  23.3487836  13.6625029  26.3149704  19.0671475
  13.1471653  27.0854309  19.3059862  13.3902338  25.6414841  19.6904536
  11.2472140  21.1599405  24.1256713  10.3913737  20.7706256  23.9462352
  11.6599092  21.2391366  23.2656499  12.7771287  18.6945748  28.5248273
  12.2736082  18.6575884  27.7116078  13.0701894  19.6038491  28.5844930
   9.0214173  18.7784478  27.5314455   9.8867170  18.5827287  27.1720344
   9.0891682  18.5494830  28.4583812  18.6359303  29.0682059  21.0024648
  17.8588746  28.7293219  20.5579810  19.3150784  29.0734682  20.3279613
  13.4511332  24.1876797  20.8931256  13.1461468  24.5022946  21.7441399
  14.4041775  24.2658216  20.9358589  11.8957764  30.3467020  22.5424210
  11.3679126  29.6119779  22.2297448  11.3945267  31.1241696  22.2964178
   6.6276492  21.0086686  24.9030822   7.2020244  20.7861868  24.1704015
   7.2147474  21.0775381  25.6559423  15.6856069  26.8960413  25.7095198
  16.1987951  27.5290405  26.2116908  16.3357293  26.2961609  25.3438558
   6.9546079  23.0391147  18.9226707   6.1183391  23.3765834  19.2435982
   6.8150849  22.9040127  17.9853844   8.9299160  17.8827935  23.6305891
   8.2763572  17.5676952  23.0062506   8.8879634  17.2603675  24.3565714
  10.0410364  28.1647230  15.5459183   9.1337426  27.9336484  15.7450332
  10.5381396  27.3684849  15.7333165  12.9478443  36.8744737  18.4655869
  12.2740142  37.1776434  19.0740827  13.3344265  37.6773818  18.1161326
  12.1636900  24.3709869  27.9553539  11.2459461  24.5924816  27.7975227
  12.5797044  24.4456179  27.0965246  12.9471948  25.7701284  23.0856219
  13.6943767  26.2822681  22.7763341  13.2163537  25.4485337  23.9460612
  11.2198598  28.2659825  20.0683173  10.3109817  27.9818858  20.1655643
  11.2493682  28.6858904  19.2086480  16.4517865  31.8766414  23.8374341
  15.9980192  31.0357324  23.8939531  15.8211832  32.5127813  24.1749121
  15.3950785  22.8058400  25.0675008  14.6573542  22.2935787  25.3985251
  15.6477558  22.3658782  24.2558285  14.8950805  33.7142911  24.7724159
  15.1873779  34.2747968  24.0536525  15.4049425  34.0071472  25.5277318
  15.4962412  15.5834652  25.6616777  15.8021289  14.7232016  25.3742693
  16.2215017  16.1752273  25.4615771   1.7886768  25.9865339  24.0498375
   1.5911168  25.3934700  23.3249442   1.2333432  25.6817549  24.7674314
   9.7683492  25.8788446  26.1692969   9.8232102  24.9262282  26.0935445
   8.9574694  26.0347885  26.6534267  10.9174686  29.8068569  17.4071252
  10.4794116  29.0904428  16.9476889  11.6585127  30.0344683  16.8456343
   7.7075852  24.4965505  23.9283347   6.8943717  24.7959676  24.3348540
   8.2034846  24.1021194  24.6457830   9.8584430  34.4923262  25.8617612
   9.8160609  34.7184109  24.9326144  10.7747129  34.2586637  26.0103413
  13.3050064  24.9607330  32.7598241  13.6599451  25.1878803  33.6192707
  13.9522195  25.2925707  32.1375497  19.0347800  28.0825766  23.4647570
  18.8965699  28.2727362  22.5368760  18.6784019  28.8445148  23.9215621
   7.1989927  22.0683861  29.5444582   7.8389306  21.9272620  28.8467546
   6.3667457  21.7818374  29.1683184   7.9750230  31.3686291  25.6579575
   8.7690829  30.8736611  25.4562150   7.2641923  30.8404154  25.2947280
  12.7945075  33.7504387  30.0091942  12.8482097  34.3195323  30.7769658
  11.9259856  33.9206272  29.6445980   4.2832994  25.5129373  21.7339328
   3.3530582  25.4513828  21.9509290   4.3790466  24.9905326  20.9375969
   4.2018543  22.0384186  24.3217569   4.4625360  22.9529519  24.2126730
   5.0235715  21.5708628  24.4714182   5.6743468  23.4521943  31.4916394
   6.3466522  23.2439305  30.8429043   4.8473255  23.2544029  31.0521626
  11.5769040  20.0783884  33.5082055  10.9296955  20.7773834  33.4146531
  12.3470056  20.5120028  33.8758303  14.9847838  30.3432736  36.5832608
  14.8333345  30.1143288  35.6662692  14.9752518  31.3003337  36.5963953
  11.7533175  27.9164649  31.5678874  12.6825235  28.0675808  31.3947842
  11.3324205  28.0048670  30.7127521  10.5521506  31.9415313  29.3377412
  10.4132592  31.5734098  30.2103350   9.7636103  32.4562953  29.1661370
  11.1469658  37.0424410  20.6802948  11.3221414  36.5712453  21.4948571
  10.4602446  37.6690176  20.9084209  12.1026722  31.3196916  26.7266250
  11.7676554  31.2797686  27.6223900  11.6030667  30.6541632  26.2536660
   6.0770966  26.7264546  32.2518831   5.9390764  25.9944785  32.8530370
   6.9875889  26.6373446  31.9703019  15.0385913  28.6652950  17.0003309
  14.4215084  27.9399778  16.9036362  14.5702402  29.4262311  16.6570384
   8.7053266  26.4384505  31.7402511   9.4152885  25.7977697  31.6989129
   8.6622574  26.6897400  32.6628691  16.6940045  33.3751859  34.6609090
  16.6352591  32.6911079  33.9939673  17.0959563  34.1170849  34.2089716
   7.4182200  23.4249723  33.5598150   6.8819557  22.9740462  34.2119746
   6.8298909  23.5595632  32.8168614   5.7130744  40.1913772  27.4542809
   5.9527342  40.8232297  28.1321827   4.8699940  39.8401812  27.7408168
   6.8284459  22.8838375  16.1224614   5.9513926  22.7627175  15.7586860
   7.3042212  22.0924453  15.8703502  16.6957452  31.3391443  32.8923069
  15.8084231  31.0017364  33.0149468  17.2656003  30.6074474  33.1291835
   3.1521321  22.5605731  30.6451144   3.0679510  21.9531400  29.9101554
   2.3304028  23.0514749  30.6460641  10.2258606  35.9992895  29.8584313
  10.1528777  36.8047866  30.3703617   9.7835999  36.1984861  29.0332334
  10.0148385  35.2364665  23.3687134   9.2315907  35.7786345  23.4625359
  10.7141130  35.7538645  23.7681375  13.3245035  21.0459294  26.0121340
  13.8213735  20.2929257  25.6922410  12.5532017  21.0823611  25.4464549
  12.6857289  35.8979729  32.0142471  13.3985261  36.5327194  31.9418373
  12.1947318  35.9943595  31.1982473  14.4074816  29.8030982  23.5859763
  13.4731095  29.9232444  23.4164467  14.5851485  28.9003448  23.3219773
   9.9080004  23.1876677  25.7393024   9.5377792  22.6347718  26.4273930
  10.4039097  22.5834811  25.1868024  17.7947367  25.6448301  24.1209797
  18.2607820  26.4776292  24.0470100  18.2454868  25.1793282  24.8255056
   7.7369203  33.6474172  32.8348042   8.4378662  34.2810655  32.9877436
   7.2664318  33.9888904  32.0743681  15.8623599  31.9892122  21.1195949
  16.1383442  31.8748717  22.0289823  14.9928097  31.5909607  21.0808122
  15.7664030  18.0128888  28.1600698  14.8527110  18.2433115  28.3282905
  16.1957132  18.0967332  29.0114731  15.5370489  26.2018780  30.6600592
  14.8841939  26.4494687  30.0053045  15.9150869  25.3882918  30.3263070
  12.4977663  36.2378473  24.7628763  12.6800057  35.4200129  25.2256515
  13.3210649  36.4546165  24.3253653  12.8319828  35.1646658  22.0243811
  13.3607594  34.6539113  21.4113973  13.0948048  34.8489188  22.8889344
  11.5858062  26.9438591  37.1466630  10.9098699  26.8432720  37.8169005
  12.4085696  26.7877805  37.6102627   3.3336921  33.1810527  29.7679145
   3.9190358  32.4354215  29.9007049   3.1361759  33.4914484  30.6515809
   6.1875576  36.2161775  24.7841587   5.5185951  36.7007902  24.3005627
   6.0488446  36.4630995  25.6984966  10.3280845  38.2505518  31.3824246
  10.8799153  38.4137140  32.1473331  10.6687038  38.8409956  30.7104270
   5.3045338  20.5980668  31.9846130   5.3686664  21.4595499  31.5723528
   5.2412458  19.9854670  31.2518489   4.7797610  22.6703801  35.6319164
   5.4069649  22.2880878  36.2456689   3.9225529  22.4518003  35.9974857
  15.1791719  33.0766776  37.2372900  15.7231623  33.6896734  36.7427855
  14.5978564  33.6346354  37.7539913   1.5563153  24.4780230  21.5637519
   1.8516594  23.5690908  21.5104573   0.6551189  24.4567969  21.2418522
  13.4649232  36.1987494  28.3687928  13.3400371  35.3977234  27.8598873
  14.1228323  36.6933687  27.8801898   5.0857400  22.5536226  27.5465068
   4.3643986  23.1672194  27.4072541   5.8750656  23.0893991  27.4681714
  15.5284140  33.9996514  29.9967478  14.5814476  33.8801865  29.9245804
  15.8766913  33.1119012  30.0793739   7.8883714  19.8890653  33.8205720
   8.4118115  20.1352949  34.5832029   7.6696047  20.7210688  33.4008857
   3.2850995  22.1594327  21.6876844   2.9563701  21.2791706  21.5051950
   3.6390365  22.1041996  22.5753234  12.5330574  33.7949230  26.1971830
  12.3855536  32.8665938  26.3779400  13.3584067  33.8169321  25.7128905
   6.3992818  22.4467297  22.0552322   6.7388890  22.9753219  21.3330930
   6.8464938  22.7847703  22.8310889  16.1364695  34.6177789  27.2836703
  17.0611243  34.4120650  27.1461154  15.9679999  34.3694190  28.1926044
   9.0936259  20.8304348  31.5055390   8.7533079  20.0312161  31.9076070
   8.3875265  21.1306059  30.9332223   9.7452730  17.9153660  29.9582713
  10.5678800  17.4414139  29.8361604   9.9890794  18.6944144  30.4581399
   8.3860965  20.9441919  20.2545615   9.1069327  21.3223172  19.7509332
   7.7626269  21.6630796  20.3580593  12.5292088  21.6487068  21.1903947
  12.7455702  22.5311706  20.8892775  12.0486155  21.2573281  20.4609589
   7.2691309  24.6072781  27.7674692   7.1235890  24.9213084  28.6598973
   6.7916513  25.2257681  27.2145590   9.1287692  21.5975329  27.8155581
   9.1149261  20.7016422  27.4787879   9.8460120  21.6045993  28.4493867
  10.9813823  22.0312669  29.8608709  10.7231601  22.9529740  29.8593039
  10.4498863  21.6343104  30.5509173  15.9260012  35.1363456  22.6398794
  16.0996889  34.5709879  21.8872647  16.4188903  35.9364351  22.4578284
   1.7436971  27.1478125  30.7062353   1.1990439  27.9237933  30.8382627
   2.6216321  27.4948930  30.5481474   8.5324588  20.4789709  23.0843152
   8.6540499  19.5506356  23.2834039   8.2426630  20.4928395  22.1721467
  11.4015778  18.1644620  26.2209871  11.4237475  18.2283953  25.2661851
  11.8183837  17.3249128  26.4150378  16.9135184  34.4530221  19.7395692
  17.6086089  35.0736913  19.9583007  17.2558334  33.6025572  20.0148070
   2.5302993  26.2748022  33.5992510   1.7884729  26.4230657  34.1857140
   2.2095737  26.5356287  32.7359259  18.8126607  31.9029926  21.2683023
  19.3377931  32.2417199  20.5432343  18.7248960  30.9676942  21.0846158
  10.4746656  35.8164000  33.3972900  10.7833782  35.5713147  34.2695599
  11.2722138  36.0210638  32.9091770  10.4967268  37.9701910  25.6278276
  10.0572258  37.4778288  26.3211133  11.2475385  37.4274877  25.3870352
   2.9759607  34.1613450  25.6302904   3.8017627  33.8617222  25.2501548
   2.6253659  33.3921073  26.0792693   7.9441140  33.5139919  27.7000578
   7.3221149  32.8510624  27.4002806   8.6146007  33.5401051  27.0174226
   8.0165668  21.9921707  37.2933084   8.0653823  22.8683830  36.9110854
   8.5588182  21.4499100  36.7204727  18.5020513  32.5362830  36.5734221
  17.7116057  32.5186969  36.0338721  18.2653868  33.0751124  37.3283258
   7.5054647  32.0643842  21.1759039   7.6542767  32.7479306  20.5225711
   8.3121090  32.0448932  21.6908494  15.9122151  25.3686224  35.2026256
  16.8132013  25.2292689  34.9110254  15.9870125  25.5340679  36.1424434
  10.2464956  22.7453079  34.0479443   9.3768265  23.0386645  33.7762031
  10.4824436  23.3293524  34.7686706   5.2607280  28.0909020  22.1820108
   5.0153322  27.1871350  22.3800318   5.4303194  28.0926170  21.2399586
  12.9503990  18.9632696  31.5644863  13.4685934  19.6993723  31.2391352
  12.5959123  19.2696689  32.3991622   4.5302927  23.8237377  19.6806269
   3.8372172  23.8981732  19.0246305   4.2854679  23.0597721  20.2027786
  13.2016584  15.3832979  27.0845760  13.4818338  14.7156168  27.7106186
  13.9867191  15.5762074  26.5720424  11.0050052  34.5591972  18.6470786
  10.4324020  35.1782160  18.1941258  11.5782846  35.1091334  19.1810708
  17.0725442  23.8050613  30.8317335  18.0242865  23.9048710  30.8529559
  16.9028893  23.0128881  31.3415419  15.0939822  20.8906196  31.0176736
  14.4989754  21.1711208  30.3223224  14.8089519  21.3800097  31.7893477
  14.2247312  34.8429123  19.7779368  15.1577985  34.7774684  19.9812244
  14.1370525  35.6785389  19.3193901  16.8535329  34.1594993  16.7383316
  16.7748960  33.8254857  17.6319074  17.6744996  34.6516761  16.7374788
  11.3896851  25.8952785  15.9886839  12.3355956  25.7658993  16.0575257
  11.0111096  25.1567447  16.4656267  17.3618736  17.5608791  25.9513730
  17.1643557  17.2523879  26.8357062  17.9718441  18.2870430  26.0811660
  11.2735544  29.9470531  37.4487496  12.1938553  30.1249130  37.6427542
  11.2385127  29.0026577  37.2967195   9.5739768  23.8202762  15.9241724
   8.6671224  23.5235874  16.0004437   9.8515749  23.5232580  15.0576010
   4.2697616  27.8571566  30.0910277   4.4883626  28.7888674  30.1098311
   4.6823390  27.4979540  30.8765081  11.1901834  18.3639651  22.0785965
  10.3802562  18.0186736  22.4541211  11.8786251  18.0547195  22.6673577
  13.1192382  17.4417698  23.7010262  13.6723421  17.8613152  24.3600285
  13.3562469  16.5153446  23.7433218   9.1425481  23.4304772  39.4813026
   9.0422208  24.3799129  39.4125117   8.9247023  23.1023011  38.6089096
   8.3438553  20.6789697  16.0653703   9.2057717  21.0044595  16.3249520
   8.5288897  19.8921193  15.5526769  16.4971189  19.5518223  23.2088926
  15.9169858  20.2103027  22.8266978  16.2307122  18.7295568  22.7976343
  14.9474756  18.9523281  25.4110246  15.4474534  19.0639816  24.6024565
  15.5910364  18.6484334  26.0511055   9.0056751  26.8601911  38.2978087
   8.5223833  27.6602271  38.5041976   9.0917690  26.8709855  37.3445531
   2.2742711  28.6930290  26.2199907   2.2513399  28.7917978  25.2681790
   2.5843348  29.5395441  26.5417073   4.9330089  30.7506445  30.3346521
   5.8873342  30.7190388  30.2676453   4.7342613  30.2897069  31.1496747
   5.5229471  29.3207561  32.9017319   6.3422360  29.8151640  32.9252156
   5.7966279  28.4039529  32.8734886  15.2796067  21.7118314  22.2645274
  14.3921922  21.9967964  22.0465469  15.6950056  21.5512077  21.4172551
  18.6310603  21.7364835  25.9799613  19.4070994  22.2261287  26.2524230
  17.9058738  22.1622889  26.4371483  21.0683162  22.4492454  27.0373554
  21.6627653  22.2088190  26.3266862  21.1409746  21.7299584  27.6647090
   3.2880318  36.2926065  27.3516719   3.1534786  35.5326466  26.7854717
   2.8712380  37.0166965  26.8845508  14.4239281  31.4762988  16.3593294
  15.1275131  31.6812991  16.9750950  13.7001929  32.0439750  16.6242378
  15.2537091  27.2272850  22.4795564  15.1972292  27.6841401  21.6403197
  15.8065433  26.4663534  22.3018407  19.0641897  23.0162581  23.3045684
  18.8078831  22.6159217  24.1353892  18.4394765  23.7306375  23.1795823
   6.4449444  37.1895382  27.5635162   6.3281828  38.1340814  27.4613852
   5.6241890  36.8868943  27.9520961  16.3325978  31.9145518  18.4091754
  17.1671582  31.4826716  18.2269229  16.1710321  31.7427531  19.3368649
  15.9871870  28.4177631  19.7748094  15.9320674  28.2521902  18.8336538
  15.3617926  29.1253664  19.9310283   0.7764385  23.6545695  33.6009516
   1.4223249  23.1444649  34.0896741   0.5681536  24.3914377  34.1752941
  13.3017777  30.7226543  39.1001656  14.1708937  30.8967195  38.7388291
  12.8224529  31.5420960  38.9777386   9.2967996  17.9185740  19.3533412
   9.2846666  18.8627580  19.5101683  10.1891418  17.7355885  19.0592873
   7.4703958  37.8423644  30.7791090   8.3731204  37.8747254  31.0957585
   7.2441328  36.9124095  30.7937426   9.2257560  36.5954630  27.4401169
   8.2753191  36.5956492  27.3265541   9.5290046  35.8487365  26.9237203
  13.1120115  14.5128516  23.6079349  12.3452511  13.9587003  23.7536031
  13.5230820  14.5850385  24.4693500   5.1161876  20.8013312  37.6984530
   5.9793338  20.4450117  37.9087855   4.5427287  20.4627207  38.3859934
  24.9610253  42.4315169  28.5046931  25.5988663  42.3121916  27.8010271
  24.8431096  43.3796013  28.5634883  21.7699960  42.3842597  28.4408456
  21.4318471  42.2683661  27.5528991  22.6389728  41.9833762  28.4209462
  17.6286775  44.2378073  24.4305347  17.0651640  44.1468010  23.6621634
  17.5139170  43.4177978  24.9107839  22.2519743  43.5377448  34.3994661
  22.2408383  43.1430247  33.5275165  22.4140382  42.8043521  34.9928433
  15.1751207  45.7329265  27.2689567  15.9672499  45.3920089  26.8535866
  15.4147857  45.8424240  28.1891720  23.2086334  47.9049041  19.7419812
  22.5574314  48.4903121  19.3553825  24.0030697  48.4355236  19.8014849
  17.1341961  44.9938178  20.1406946  17.9072837  44.4467165  20.0019822
  17.4867360  45.8582427  20.3521407  18.9727004  46.3214560  33.3473845
  18.6816870  47.2260191  33.2320512  19.6083988  46.3631088  34.0617915
  19.8983210  43.6991409  29.9375205  20.4946783  43.4747431  29.2232168
  19.9558182  42.9576154  30.5400653  19.4708239  41.1530844  17.7725396
  19.7233760  40.6312365  17.0108859  18.5332798  40.9896990  17.8752079
  24.5151522  40.1566622  25.5800139  25.3014611  39.7386046  25.2290556
  24.7790226  41.0612715  25.7481787  24.6861599  45.5939473  20.2788796
  24.0507432  45.6674099  20.9909701  24.3559005  46.1833072  19.6007875
  29.9159949  40.0941856  26.4833118  30.6485121  39.5241073  26.7170947
  29.1599305  39.7063456  26.9239623  19.1904528  43.0558950  19.9749771
  19.0740786  42.3803853  20.6430855  19.3006788  42.5691324  19.1581924
  21.5336069  42.5169097  23.6796460  21.1694276  41.9899718  24.3909381
  22.3903184  42.1267566  23.5062945  21.1741556  37.5458997  18.6757809
  21.3415958  38.4139233  19.0428280  20.9838725  37.7086279  17.7519098
  23.9316889  46.0075976  30.3423639  23.6317612  46.9101015  30.2339446
  23.5867948  45.7408159  31.1944792  17.3829370  42.4589773  26.3760343
  16.4579867  42.3265987  26.5838035  17.6313783  43.2383992  26.8730286
  27.3314033  38.5258516  28.0221076  26.4230910  38.4573924  27.7279837
  27.2801628  39.0030461  28.8502902  21.1530776  40.0016654  19.6604475
  21.0330402  40.4473705  20.4989956  20.4583365  40.3501972  19.1018014
  14.7438181  42.1023046  27.2104132  14.8730562  42.3557525  28.1243544
  14.0635633  42.6950754  26.8908787  21.4054898  39.9448162  35.9655974
  20.6288232  40.5042082  35.9558838  22.0445461  40.4304945  36.4870844
  26.8515843  40.4738128  20.4884809  27.7633699  40.7065514  20.3132507
  26.3425490  41.0575172  19.9259888  19.6601271  42.7533615  35.5273941
  20.4015955  43.2918659  35.2508764  18.9538256  43.3799904  35.6845492
  25.1356610  44.8962755  34.1246102  25.5439966  44.4545166  33.3800734
  24.4133872  44.3215383  34.3780295  21.4887680  39.8335362  31.4979659
  22.3348875  40.2574776  31.6414308  21.4286318  39.1768986  32.1918222
  25.4585425  45.4563946  27.8798391  24.8294287  45.6209660  27.1774459
  25.0711087  45.8705556  28.6509355  29.3374657  46.3918384  25.2342755
  28.6525695  46.7717285  24.6839788  29.4218506  47.0013711  25.9674702
  26.5925588  44.0378343  31.8338098  26.8042484  44.6810103  31.1572479
  26.5455337  43.2040659  31.3660028  21.0113387  45.1938354  25.1448476
  21.4751732  45.4726057  24.3553098  20.7470185  44.2921799  24.9621567
  17.9037468  44.7409836  28.0828239  18.4738825  45.1697104  27.4445724
  18.4945580  44.4592420  28.7812425  19.9482273  41.3161506  21.9538041
  20.6506316  41.7682550  22.4211967  19.6162901  40.6745325  22.5817934
  18.3962634  39.9073263  36.3289251  17.7661295  40.5889544  36.5624647
  18.2898722  39.7956345  35.3842389  13.6907607  39.5745059  27.2555175
  12.9006661  39.8302588  26.7795285  14.1818854  40.3893397  27.3607215
  27.7071416  46.9150298  30.0060456  28.5288860  46.5130486  29.7243137
  27.7033819  46.8118532  30.9576571  15.6422352  39.9389638  24.2138651
  14.8453515  40.0508333  24.7322147  15.4147944  40.2776291  23.3479542
  21.4728020  46.4634342  32.1621166  21.5372452  46.9254749  32.9979338
  20.7638944  45.8331707  32.2903476  11.9745310  39.8275550  29.6870165
  12.2253348  40.7122560  29.9527741  12.5104858  39.6480151  28.9145257
  35.7977409  43.2589047  26.3545427  35.0441118  42.6896445  26.1989431
  35.9324951  43.2251711  27.3016062  21.1876037  48.1302449  22.0300146
  21.0521712  48.9753985  22.4584994  21.7285850  48.3321727  21.2666080
  17.6743377  34.2094029  38.6914502  17.2810323  33.6560228  39.3662146
  18.4909517  34.5204607  39.0821019  14.6405435  45.6477887  22.6028071
  15.1529955  46.4421137  22.7533636  15.2928148  44.9504178  22.5361673
  16.4500320  48.7643643  24.6850825  16.6266948  49.6861608  24.4971808
  17.2457153  48.4502063  25.1145204  20.5911338  35.6251908  36.2834758
  21.3321051  36.2259061  36.2039221  20.8229261  34.8829546  35.7252801
  15.7352676  40.8108275  34.5612988  15.6206191  39.9093533  34.8620087
  14.8797194  41.0571972  34.2097804  22.8144514  48.7526016  36.1600488
  22.3708368  47.9662394  35.8421393  23.4761727  48.9405166  35.4944379
  17.5731635  50.2821817  30.6861167  18.1239060  50.1538881  29.9138161
  16.7343111  50.5816706  30.3356060  24.9125752  49.0328816  34.1881890
  24.8944227  49.8537697  33.6962159  25.8345672  48.9082891  34.4132031
  21.3698806  46.5472945  35.0305398  21.9027143  45.7861233  34.8004706
  20.8412887  46.2546597  35.7729553  12.6054352  43.9766541  23.3787642
  13.4429574  44.3863550  23.1621350  12.7832619  43.0365984  23.3487836
  24.5018784  41.6441622  19.0671475  23.9865407  42.4146227  19.3059862
  24.2296092  40.9706758  19.6904536  22.0865895  36.4891323  24.1256713
  21.2307491  36.0998173  23.9462352  22.4992847  36.5683284  23.2656499
  29.4753058  44.3973977  21.0024648  28.6982501  44.0585136  20.5579810
  30.1544539  44.4026600  20.3279613  24.2905087  39.5168714  20.8931256
  23.9855222  39.8314863  21.7441399  25.2435529  39.5950134  20.9358589
  22.7351519  45.6758938  22.5424210  22.2072880  44.9411697  22.2297448
  22.2339021  46.4533614  22.2964178  27.7144365  43.8707958  27.6591256
  27.0568039  44.5607219  27.7471385  28.5184764  44.2604390  28.0025243
  17.4670246  36.3378604  24.9030822  18.0413998  36.1153785  24.1704015
  18.0541229  36.4067298  25.6559423  26.5249824  42.2252331  25.7095198
  27.0381705  42.8582323  26.2116908  27.1751047  41.6253526  25.3438558
  17.7939833  38.3683065  18.9226707  16.9577146  38.7057751  19.2435982
  17.6544603  38.2332045  17.9853844  19.7692914  33.2119853  23.6305891
  19.1157326  32.8968870  23.0062506  19.7273388  32.5895593  24.3565714
  20.8804119  43.4939148  15.5459183  19.9731181  43.2628401  15.7450332
  21.3775151  42.6976767  15.7333165  23.7872198  52.2036655  18.4655869
  23.1133897  52.5068352  19.0740827  24.1738020  53.0065735  18.1161326
  23.0030654  39.7001786  27.9553539  22.0853216  39.9216733  27.7975227
  23.4190798  39.7748097  27.0965246  23.7865702  41.0993202  23.0856219
  24.5337521  41.6114599  22.7763341  24.0557292  40.7777255  23.9460612
  22.0592352  43.5951743  20.0683173  21.1503572  43.3110775  20.1655643
  22.0887436  44.0150821  19.2086480  27.2911620  47.2058332  23.8374341
  26.8373947  46.3649242  23.8939531  26.6605586  47.8419731  24.1749121
  26.2344539  38.1350318  25.0675008  25.4967296  37.6227704  25.3985251
  26.4871313  37.6950700  24.2558285  25.7344559  49.0434829  24.7724159
  26.0267533  49.6039886  24.0536525  26.2443180  49.3363390  25.5277318
  12.6280523  41.3157257  24.0498375  12.4304923  40.7226617  23.3249442
  12.0727187  41.0109467  24.7674314  20.6077246  41.2080363  26.1692969
  20.6625856  40.2554200  26.0935445  19.7968448  41.3639802  26.6534267
  21.7568440  45.1360486  17.4071252  21.3187870  44.4196345  16.9476889
  22.4978881  45.3636601  16.8456343  18.5469606  39.8257423  23.9283347
  17.7337472  40.1251594  24.3348540  19.0428601  39.4313112  24.6457830
  20.6978184  49.8215180  25.8617612  20.6554363  50.0476026  24.9326144
  21.6140883  49.5878555  26.0103413  24.1443818  40.2899247  32.7598241
  24.4993206  40.5170721  33.6192707  24.7915949  40.6217624  32.1375497
  29.8741555  43.4117683  23.4647570  29.7359454  43.6019279  22.5368760
  29.5177774  44.1737066  23.9215621  18.0383681  37.3975779  29.5444582
  18.6783060  37.2564538  28.8467546  17.2061212  37.1110292  29.1683184
  29.9010935  45.4794210  28.4758842  30.3347441  45.3869499  29.3241896
  30.6142515  45.4551711  27.8378858  18.8143985  46.6978209  25.6579575
  19.6084583  46.2028529  25.4562150  18.1035677  46.1696072  25.2947280
  23.6338829  49.0796304  30.0091942  23.6875852  49.6487241  30.7769658
  22.7653611  49.2498190  29.6445980  15.1226748  40.8421291  21.7339328
  14.1924337  40.7805746  21.9509290  15.2184220  40.3197243  20.9375969
  15.0412298  37.3676104  24.3217569  15.3019115  38.2821437  24.2126730
  15.8629470  36.9000546  24.4714182  16.5137223  38.7813861  31.4916394
  17.1860276  38.5731223  30.8429043  15.6867009  38.5835947  31.0521626
  30.7626484  45.5217911  31.0091727  30.9562374  46.4263722  31.2551002
  30.6627102  45.0625330  31.8430312  25.8241593  45.6724654  36.5832608
  25.6727099  45.4435205  35.6662692  25.8146272  46.6295255  36.5963953
  22.5926929  43.2456566  31.5678874  23.5218989  43.3967726  31.3947842
  22.1717959  43.3340587  30.7127521  21.3915261  47.2707231  29.3377412
  21.2526347  46.9026015  30.2103350  20.6029857  47.7854870  29.1661370
  21.9863413  52.3716327  20.6802948  22.1615169  51.9004371  21.4948571
  21.2996201  52.9982094  20.9084209  22.9420476  46.6488834  26.7266250
  22.6070309  46.6089604  27.6223900  22.4424422  45.9833550  26.2536660
  16.9164720  42.0556464  32.2518831  16.7784518  41.3236702  32.8530370
  17.8269644  41.9665364  31.9703019  25.8779668  43.9944868  17.0003309
  25.2608838  43.2691696  16.9036362  25.4096156  44.7554228  16.6570384
  19.5447021  41.7676423  31.7402511  20.2546639  41.1269615  31.6989129
  19.5016329  42.0189318  32.6628691  27.5333799  48.7043776  34.6609090
  27.4746346  48.0202996  33.9939673  27.9353318  49.4462766  34.2089716
  18.2575955  38.7541641  33.5598150  17.7213312  38.3032379  34.2119746
  17.6692663  38.8887550  32.8168614  17.6678214  38.2130292  16.1224614
  16.7907680  38.0919093  15.7586860  18.1435967  37.4216371  15.8703502
  27.5351207  46.6683360  32.8923069  26.6477985  46.3309282  33.0149468
  28.1049758  45.9366391  33.1291835   9.1880354  43.0007452  26.2166121
   9.8751394  42.6869182  25.6287136   9.0328483  43.9048817  25.9433372
  13.9915076  37.8897649  30.6451144  13.9073265  37.2823318  29.9101554
  13.1697782  38.3806667  30.6460641  21.0652360  51.3284813  29.8584313
  20.9922532  52.1339784  30.3703617  20.6229753  51.5276778  29.0332334
  20.8542140  50.5656583  23.3687134  20.0709662  51.1078263  23.4625359
  21.5534885  51.0830562  23.7681375  24.1638790  36.3751212  26.0121340
  24.6607489  35.6221174  25.6922410  23.3925771  36.4115529  25.4464549
  32.0168547  42.0791578  27.6539631  32.0058423  42.9616293  27.2833564
  31.1485927  41.7263128  27.4594168  23.5251044  51.2271647  32.0142471
  24.2379016  51.8619111  31.9418373  23.0341072  51.3235513  31.1982473
  25.2468571  45.1322899  23.5859763  24.3124849  45.2524362  23.4164467
  25.4245239  44.2295366  23.3219773  20.7473759  38.5168595  25.7393024
  20.3771546  37.9639635  26.4273930  21.2432851  37.9126729  25.1868024
  28.6341122  40.9740219  24.1209797  29.1001574  41.8068210  24.0470100
  29.0848622  40.5085200  24.8255056  18.5762957  48.9766090  32.8348042
  19.2772417  49.6102573  32.9877436  18.1058072  49.3180822  32.0743681
  26.7017353  47.3184040  21.1195949  26.9777197  47.2040634  22.0289823
  25.8321852  46.9201525  21.0808122  26.3764243  41.5310698  30.6600592
  25.7235693  41.7786605  30.0053045  26.7544623  40.7174836  30.3263070
  23.3371417  51.5670391  24.7628763  23.5193812  50.7492047  25.2256515
  24.1604403  51.7838083  24.3253653  23.6713583  50.4938576  22.0243811
  24.2001349  49.9831030  21.4113973  23.9341802  50.1781106  22.8889344
  22.4251816  42.2730509  37.1466630  21.7492453  42.1724638  37.8169005
  23.2479450  42.1169722  37.6102627  14.1730675  48.5102445  29.7679145
  14.7584112  47.7646133  29.9007049  13.9755514  48.8206402  30.6515809
   8.7648330  41.0808045  28.4883588   8.8032429  40.5471636  29.2820706
   8.2588623  40.5543251  27.8694565  16.1439092  35.9272586  31.9846130
  16.2080419  36.7887417  31.5723528  16.0806212  35.3146588  31.2518489
  15.6191365  37.9995718  35.6319164  16.2463404  37.6172796  36.2456689
  14.7619284  37.7809920  35.9974857  26.0185473  48.4058694  37.2372900
  26.5625377  49.0188652  36.7427855  25.4372318  48.9638272  37.7539913
  12.3956908  39.8072148  21.5637519  12.6910349  38.8982826  21.5104573
  11.4944943  39.7859887  21.2418522  24.3042986  51.5279412  28.3687928
  24.1794126  50.7269151  27.8598873  24.9622077  52.0225605  27.8801898
  15.9251155  37.8828144  27.5465068  15.2037740  38.4964112  27.4072541
  16.7144410  38.4185909  27.4681714  26.3677895  49.3288432  29.9967478
  25.4208230  49.2093783  29.9245804  26.7160668  48.4410930  30.0793739
  18.7277468  35.2182571  33.8205720  19.2511870  35.4644867  34.5832029
  18.5089801  36.0502605  33.4008857  14.1244749  37.4886245  21.6876844
  13.7957455  36.6083624  21.5051950  14.4784120  37.4333914  22.5753234
  23.3724328  49.1241148  26.1971830  23.2249290  48.1957855  26.3779400
  24.1977821  49.1461239  25.7128905  17.2386572  37.7759215  22.0552322
  17.5782645  38.3045136  21.3330930  17.6858693  38.1139621  22.8310889
  26.9758450  49.9469707  27.2836703  27.9004997  49.7412568  27.1461154
  26.8073753  49.6986108  28.1926044  19.9330013  36.1596266  31.5055390
  19.5926833  35.3604079  31.9076070  19.2269019  36.4597977  30.9332223
  19.2254719  36.2733837  20.2545615  19.9463082  36.6515089  19.7509332
  18.6020024  36.9922713  20.3580593  23.3685842  36.9778986  21.1903947
  23.5849457  37.8603623  20.8892775  22.8879909  36.5865199  20.4609589
  18.1085064  39.9364699  27.7674692  17.9629644  40.2505002  28.6598973
  17.6310267  40.5549599  27.2145590  19.9681447  36.9267247  27.8155581
  19.9543015  36.0308340  27.4787879  20.6853875  36.9337910  28.4493867
  21.8207577  37.3604587  29.8608709  21.5625355  38.2821658  29.8593039
  21.2892618  36.9635021  30.5509173  26.7653766  50.4655374  22.6398794
  26.9390644  49.9001797  21.8872647  27.2582657  51.2656269  22.4578284
  12.5830726  42.4770043  30.7062353  12.0384194  43.2529851  30.8382627
  13.4610076  42.8240848  30.5481474  19.3718342  35.8081627  23.0843152
  19.4934254  34.8798273  23.2834039  19.0820385  35.8220313  22.1721467
  32.6193157  43.2291797  24.2589094  33.0624303  42.4799122  23.8608217
  31.7419667  43.2201933  23.8762826  27.7528939  49.7822138  19.7395692
  28.4479843  50.4028831  19.9583007  28.0952089  48.9317490  20.0148070
  13.3696748  41.6039939  33.5992510  12.6278484  41.7522575  34.1857140
  13.0489492  41.8648205  32.7359259  29.6520362  47.2321844  21.2683023
  30.1771686  47.5709117  20.5432343  29.5642714  46.2968859  21.0846158
  21.3140410  51.1455918  33.3972900  21.6227537  50.9005064  34.2695599
  22.1115892  51.3502556  32.9091770  21.3361022  53.2993827  25.6278276
  20.8966013  52.8070206  26.3211133  22.0869139  52.7566795  25.3870352
  13.8153361  49.4905368  25.6302904  14.6411381  49.1909140  25.2501548
  13.4647413  48.7212991  26.0792693  18.7834895  48.8431836  27.7000578
  18.1614904  48.1802541  27.4002806  19.4539761  48.8692968  27.0174226
  12.0161966  47.4091695  26.5891838  11.1793875  46.9813869  26.4075839
  11.9885612  47.6024138  27.5262629  18.8559422  37.3213624  37.2933084
  18.9047578  38.1975747  36.9110854  19.3981936  36.7791017  36.7204727
  29.3414268  47.8654748  36.5734221  28.5509811  47.8478886  36.0338721
  29.1047622  48.4043041  37.3283258  29.4612143  44.7147214  33.8866950
  29.5110148  44.5497221  34.8282473  29.3526066  43.8474473  33.4964831
  18.3448401  47.3935760  21.1759039  18.4936522  48.0771224  20.5225711
  19.1514845  47.3740850  21.6908494  26.7515905  40.6978142  35.2026256
  27.6525768  40.5584607  34.9110254  26.8263880  40.8632597  36.1424434
  21.0858710  38.0744997  34.0479443  20.2162020  38.3678563  33.7762031
  21.3218191  38.6585442  34.7686706  30.9630340  47.1344156  34.1308971
  30.6715148  47.4974136  34.9672432  30.3502471  46.4211164  33.9522303
  32.1626022  44.6997035  26.6511542  32.9972913  45.1386839  26.8149102
  32.2985151  44.2235689  25.8319787  29.2117528  42.2576770  32.5989029
  29.6871649  42.4504416  31.7907881  28.2883093  42.3135956  32.3532413
  16.1001034  43.4200937  22.1820108  15.8547076  42.5163267  22.3800318
  16.2696949  43.4218088  21.2399586  15.3696682  39.1529295  19.6806269
  14.6765927  39.2273650  19.0246305  15.1248434  38.3889639  20.2027786
  21.8443807  49.8883890  18.6470786  21.2717774  50.5074077  18.1941258
  22.4176601  50.4383252  19.1810708  27.9119197  39.1342530  30.8317335
  28.8636620  39.2340628  30.8529559  27.7422647  38.3420799  31.3415419
  25.0641067  50.1721040  19.7779368  25.9971740  50.1066602  19.9812244
  24.9764280  51.0077307  19.3193901  27.6929083  49.4886911  16.7383316
  27.6142715  49.1546774  17.6319074  28.5138750  49.9808679  16.7374788
  30.3907275  42.3548650  29.9459635  30.3583595  41.4164651  30.1319318
  31.0007898  42.4332687  29.2125459  22.2290605  41.2244703  15.9886839
  23.1749710  41.0950911  16.0575257  21.8504850  40.4859365  16.4656267
  30.5401763  39.1459693  29.9917918  30.0240812  38.3618150  29.8047847
  31.4241712  38.8178410  30.1564437  36.2083824  43.4164657  29.0865671
  36.9387213  43.1549945  29.6473375  35.5990770  42.6793379  29.1267739
  34.2899122  41.5572519  29.6840123  33.5632285  41.4228484  29.0756614
  33.8746408  41.8649348  30.4896841  22.1129298  45.2762449  37.4487496
  23.0332307  45.4541048  37.6427542  22.0778881  44.3318494  37.2967195
  20.4133523  39.1494679  15.9241724  19.5064978  38.8527792  16.0004437
  20.6909504  38.8524497  15.0576010  11.3311463  40.4701043  26.3740770
  11.0114247  39.6166351  26.0815144  10.7844891  40.6849621  27.1298738
  15.1091371  43.1863484  30.0910277  15.3277380  44.1180592  30.1098311
  15.5217144  42.8271458  30.8765081  22.0295588  33.6931569  22.0785965
  21.2196317  33.3478654  22.4541211  22.7180005  33.3839113  22.6673577
  19.9819236  38.7596689  39.4813026  19.8815963  39.7091046  39.4125117
  19.7640778  38.4314928  38.6089096  19.1832307  36.0081615  16.0653703
  20.0451471  36.3336513  16.3249520  19.3682651  35.2213110  15.5526769
  11.1999723  44.0903954  28.3433892  10.5063194  43.6757907  27.8303846
  11.9472714  44.1324491  27.7467311  19.8450506  42.1893828  38.2978087
  19.3617588  42.9894188  38.5041976  19.9311445  42.2001773  37.3445531
  13.1136466  44.0222208  26.2199907  13.0907154  44.1209895  25.2681790
  13.4237102  44.8687359  26.5417073  15.7723843  46.0798363  30.3346521
  16.7267097  46.0482305  30.2676453  15.5736367  45.6188987  31.1496747
  16.3623226  44.6499479  32.9017319  17.1816115  45.1443558  32.9252156
  16.6360033  43.7331447  32.8734886  26.1189822  37.0410231  22.2645274
  25.2315677  37.3259882  22.0465469  26.5343811  36.8803995  21.4172551
  29.4704358  37.0656752  25.9799613  30.2464748  37.5553205  26.2524230
  28.7452492  37.4914807  26.4371483  31.9076917  37.7784372  27.0373554
  32.5021407  37.5380108  26.3266862  31.9803500  37.0591502  27.6647090
  25.2633035  46.8054906  16.3593294  25.9668885  47.0104909  16.9750950
  24.5395684  47.3731668  16.6242378  26.0930845  42.5564767  22.4795564
  26.0366047  43.0133319  21.6403197  26.6459188  41.7955452  22.3018407
  29.9035651  38.3454499  23.3045684  29.6472586  37.9451135  24.1353892
  29.2788519  39.0598293  23.1795823  34.2147989  41.0850572  25.8116975
  33.6547547  41.1543762  26.5848537  33.6091493  40.9091557  25.0916472
  27.1719733  47.2437435  18.4091754  28.0065337  46.8118634  18.2269229
  27.0104076  47.0719449  19.3368649  26.8265625  43.7469549  19.7748094
  26.7714429  43.5813820  18.8336538  26.2011680  44.4545581  19.9310283
  11.6158140  38.9837613  33.6009516  12.2617003  38.4736567  34.0896741
  11.4075291  39.7206295  34.1752941  24.1411532  46.0518460  39.1001656
  25.0102692  46.2259113  38.7388291  23.6618283  46.8712877  38.9777386
  20.1361750  33.2477658  19.3533412  20.1240420  34.1919497  19.5101683
  21.0285172  33.0647803  19.0592873  20.0651314  51.9246548  27.4401169
  19.1146945  51.9248410  27.3265541  20.3683800  51.1779283  26.9237203
  15.9555631  36.1305230  37.6984530  16.8187092  35.7742035  37.9087855
  15.3821041  35.7919125  38.3859934  30.3101993  56.4822762  17.7725396
  30.5627514  55.9604283  17.0108859  29.3726552  56.3188907  17.8752079
  35.3545276  55.4858540  25.5800139  36.1408365  55.0677963  25.2290556
  35.6183981  56.3904632  25.7481787  40.7553703  55.4233773  26.4833118
  41.4878875  54.8532990  26.7170947  39.9993059  55.0355374  26.9239623
  38.2779124  49.1355347  30.9427726  37.9462448  50.0050758  30.7188941
  37.6824737  48.8191631  31.6221757  32.0135310  52.8750915  18.6757809
  32.1809712  53.7431151  19.0428280  31.8232479  53.0378196  17.7519098
  38.1707787  53.8550434  28.0221076  37.2624664  53.7865842  27.7279837
  38.1195383  54.3322379  28.8502902  31.9924531  55.3308572  19.6604475
  31.8724156  55.7765623  20.4989956  31.2977119  55.6793890  19.1018014
  32.2448653  55.2740079  35.9655974  31.4681987  55.8333999  35.9558838
  32.8839216  55.7596862  36.4870844  40.0369433  52.0566872  29.7998950
  39.3943814  52.3499405  29.1538745  39.5324362  51.9419792  30.6052147
  37.6909597  55.8030045  20.4884809  38.6027453  56.0357432  20.3132507
  37.1819244  56.3867089  19.9259888  32.3281435  55.1627280  31.4979659
  33.1742630  55.5866693  31.6414308  32.2680072  54.5060904  32.1918222
  35.4780880  52.8231648  33.1560833  35.2341812  53.5773709  32.6195108
  35.7540811  53.2016996  33.9908080  35.0345572  51.9788081  28.7374670
  34.1730051  52.2769335  29.0291408  35.0608006  52.1958480  27.8055703
  30.7876027  56.6453424  21.9538041  31.4900071  57.0974468  22.4211967
  30.4556656  56.0037243  22.5817934  29.2356389  55.2365181  36.3289251
  28.6055049  55.9181462  36.5624647  29.1292477  55.1248262  35.3842389
  28.5137132  49.5385947  38.6914502  28.1204077  48.9852145  39.3662146
  29.3303272  49.8496525  39.0821019  31.4305093  50.9543826  36.2834758
  32.1714806  51.5550979  36.2039221  31.6623015  50.2121464  35.7252801
  35.3762256  46.9824929  30.5599040  35.0326525  47.8726570  30.4838150
  35.7441218  46.7926586  29.6968625  35.3412538  56.9733540  19.0671475
  34.8259162  57.7438144  19.3059862  35.0689847  56.2998676  19.6904536
  32.9259649  51.8183241  24.1256713  32.0701246  51.4290091  23.9462352
  33.3386601  51.8975201  23.2656499  34.4558796  49.3529584  28.5248273
  33.9523591  49.3159719  27.7116078  34.7489403  50.2622327  28.5844930
  30.7001682  49.4368314  27.5314455  31.5654679  49.2411122  27.1720344
  30.7679191  49.2078665  28.4583812  35.1298841  54.8460632  20.8931256
  34.8248977  55.1606781  21.7441399  36.0829284  54.9242052  20.9358589
  28.3064001  51.6670521  24.9030822  28.8807753  51.4445703  24.1704015
  28.8934983  51.7359216  25.6559423  28.6333588  53.6974982  18.9226707
  27.7970900  54.0349669  19.2435982  28.4938358  53.5623962  17.9853844
  30.6086669  48.5411770  23.6305891  29.9551081  48.2260788  23.0062506
  30.5667143  47.9187511  24.3565714  33.8424409  55.0293704  27.9553539
  32.9246970  55.2508651  27.7975227  34.2584553  55.1040014  27.0965246
  34.6259457  56.4285120  23.0856219  35.3731276  56.9406517  22.7763341
  34.8951046  56.1069172  23.9460612  37.0738294  53.4642236  25.0675008
  36.3361051  52.9519622  25.3985251  37.3265067  53.0242617  24.2558285
  37.1749921  46.2418488  25.6616777  37.4808798  45.3815851  25.3742693
  37.9002526  46.8336108  25.4615771  31.4471001  56.5372281  26.1692969
  31.5019611  55.5846117  26.0935445  30.6362203  56.6931720  26.6534267
  29.3863361  55.1549341  23.9283347  28.5731226  55.4543511  24.3348540
  29.8822355  54.7605029  24.6457830  34.9837573  55.6191165  32.7598241
  35.3386960  55.8462638  33.6192707  35.6309704  55.9509542  32.1375497
  28.8777436  52.7267696  29.5444582  29.5176815  52.5856455  28.8467546
  28.0454966  52.4402210  29.1683184  25.8806052  52.6968021  24.3217569
  26.1412869  53.6113354  24.2126730  26.7023224  52.2292464  24.4714182
  27.3530977  54.1105778  31.4916394  28.0254031  53.9023140  30.8429043
  26.5260764  53.9127864  31.0521626  33.2556549  50.7367719  33.5082055
  32.6084464  51.4357669  33.4146531  34.0257565  51.1703863  33.8758303
  29.0969709  54.0833559  33.5598150  28.5607066  53.6324297  34.2119746
  28.5086418  54.2179467  32.8168614  28.5071968  53.5422210  16.1224614
  27.6301435  53.4211011  15.7586860  28.9829721  52.7508288  15.8703502
  24.8308830  53.2189566  30.6451144  24.7467019  52.6115236  29.9101554
  24.0091537  53.7098585  30.6460641  35.0032544  51.7043130  26.0121340
  35.5001244  50.9513092  25.6922410  34.2319526  51.7407446  25.4464549
  31.5867513  53.8460513  25.7393024  31.2165301  53.2931553  26.4273930
  32.0826606  53.2418646  25.1868024  37.4451539  48.6712723  28.1600698
  36.5314619  48.9016950  28.3282905  37.8744641  48.7551167  29.0114731
  37.2157998  56.8602615  30.6600592  36.5629448  57.1078523  30.0053045
  37.5938378  56.0466753  30.3263070  33.2645571  57.6022426  37.1466630
  32.5886208  57.5016556  37.8169005  34.0873205  57.4461640  37.6102627
  26.9832847  51.2564504  31.9846130  27.0474173  52.1179334  31.5723528
  26.9199967  50.6438505  31.2518489  26.4585119  53.3287636  35.6319164
  27.0857158  52.9464713  36.2456689  25.6013038  53.1101838  35.9974857
  26.7644909  53.2120062  27.5465068  26.0431495  53.8256029  27.4072541
  27.5538165  53.7477827  27.4681714  29.5671223  50.5474488  33.8205720
  30.0905624  50.7936785  34.5832029  29.3483556  51.3794523  33.4008857
  24.9638504  52.8178163  21.6876844  24.6351210  51.9375542  21.5051950
  25.3177874  52.7625832  22.5753234  28.0780327  53.1051133  22.0552322
  28.4176399  53.6337054  21.3330930  28.5252447  53.4431539  22.8310889
  30.7723768  51.4888183  31.5055390  30.4320588  50.6895996  31.9076070
  30.0662774  51.7889894  30.9332223  31.4240239  48.5737496  29.9582713
  32.2466309  48.0997974  29.8361604  31.6678303  49.3527980  30.4581399
  30.0648474  51.6025754  20.2545615  30.7856836  51.9807007  19.7509332
  29.4413778  52.3214631  20.3580593  34.2079597  52.3070903  21.1903947
  34.4243211  53.1895541  20.8892775  33.7273664  51.9157117  20.4609589
  28.9478818  55.2656616  27.7674692  28.8023399  55.5796919  28.6598973
  28.4704022  55.8841517  27.2145590  30.8075201  52.2559164  27.8155581
  30.7936770  51.3600258  27.4787879  31.5247629  52.2629828  28.4493867
  32.6601332  52.6896505  29.8608709  32.4019110  53.6113575  29.8593039
  32.1286372  52.2926939  30.5509173  30.2112097  51.1373545  23.0843152
  30.3328008  50.2090191  23.2834039  29.9214139  51.1512231  22.1721467
  33.0803287  48.8228455  26.2209871  33.1024984  48.8867788  25.2661851
  33.4971346  47.9832964  26.4150378  29.6953177  52.6505542  37.2933084
  29.7441332  53.5267665  36.9110854  30.2375691  52.1082935  36.7204727
  37.5909660  56.0270060  35.2026256  38.4919522  55.8876525  34.9110254
  37.6657634  56.1924515  36.1424434  31.9252465  53.4036914  34.0479443
  31.0555774  53.6970481  33.7762031  32.1611945  53.9877359  34.7686706
  34.6291499  49.6216531  31.5644863  35.1473443  50.3577558  31.2391352
  34.2746632  49.9280525  32.3991622  26.2090436  54.4821213  19.6806269
  25.5159681  54.5565568  19.0246305  25.9642188  53.7181556  20.2027786
  34.8804093  46.0416814  27.0845760  35.1605847  45.3740003  27.7106186
  35.6654700  46.2345910  26.5720424  38.7512951  54.4634448  30.8317335
  39.7030374  54.5632546  30.8529559  38.5816402  53.6712716  31.3415419
  36.7727331  51.5490031  31.0176736  36.1777263  51.8295044  30.3223224
  36.4877027  52.0383932  31.7893477  33.0684360  56.5536621  15.9886839
  34.0143465  56.4242829  16.0575257  32.6898605  55.8151282  16.4656267
  41.3795518  54.4751611  29.9917918  40.8634566  53.6910068  29.8047847
  42.2635466  54.1470328  30.1564437  39.0406245  48.2192627  25.9513730
  38.8431066  47.9107715  26.8357062  39.6505950  48.9454266  26.0811660
  31.2527277  54.4786597  15.9241724  30.3458733  54.1819710  16.0004437
  31.5303258  54.1816415  15.0576010  32.8689343  49.0223487  22.0785965
  32.0590071  48.6770572  22.4541211  33.5573760  48.7131030  22.6673577
  34.7979891  48.1001533  23.7010262  35.3510930  48.5196987  24.3600285
  35.0349977  47.1737282  23.7433218  30.8212990  54.0888607  39.4813026
  30.7209717  55.0382964  39.4125117  30.6034532  53.7606846  38.6089096
  30.0226062  51.3373532  16.0653703  30.8845226  51.6628430  16.3249520
  30.2076406  50.5505028  15.5526769  38.1758698  50.2102059  23.2088926
  37.5957367  50.8686863  22.8266978  37.9094631  49.3879403  22.7976343
  36.6262265  49.6107116  25.4110246  37.1262043  49.7223651  24.6024565
  37.2697873  49.3068169  26.0511055  36.9583576  52.3702149  22.2645274
  36.0709431  52.6551800  22.0465469  37.3737565  52.2095912  21.4172551
  40.3098112  52.3948670  25.9799613  41.0858502  52.8845122  26.2524230
  39.5846247  52.8206724  26.4371483  42.7470671  53.1076289  27.0373554
  43.3415162  52.8672025  26.3266862  42.8197255  52.3883420  27.6647090
  36.9324600  57.8856685  22.4795564  36.8759801  58.3425236  21.6403197
  37.4852942  57.1247370  22.3018407  40.7429406  53.6746417  23.3045684
  40.4866340  53.2743052  24.1353892  40.1182274  54.3890211  23.1795823
  30.9755505  48.5769575  19.3533412  30.9634175  49.5211415  19.5101683
  31.8678927  48.3939721  19.0592873  34.7907624  45.1712352  23.6079349
  34.0240020  44.6170839  23.7536031  35.2018329  45.2434221  24.4693500
  26.7949385  51.4597148  37.6984530  27.6580847  51.1033953  37.9087855
  26.2214796  51.1211042  38.3859934  14.1216500   4.1085374  15.2292238
  14.7594910   3.9892121  14.5255578  14.0037343   5.0566218  15.2880190
  11.4125989   5.2147653  21.1239968  11.4014630   4.8200452  20.2520472
  11.5746629   4.4813726  21.7173739   8.1333250   7.9984765  20.0719152
   7.8423116   8.9030396  19.9565818   8.7690235   8.0401293  20.7863221
   9.0589457   5.3761614  16.6620512   9.6553030   5.1517636  15.9477474
   9.1164429   4.6346359  17.2645959  19.0766196   1.7712061  13.2078424
  19.8091368   1.2011277  13.4416254  18.3205551   1.3833661  13.6484930
  13.0923135   7.6846181  17.0668946  12.7923859   8.5871220  16.9584753
  12.7474195   7.4178364  17.9190098   8.0743915  14.4490501  10.0339913
   7.9967945  15.3998326  10.1128394   7.4705559  14.1036374  10.6914840
  10.5661145   1.6218366  22.6901280   9.7894479   2.1812287  22.6804145
  11.2051708   2.1075149  23.2116150  18.3581926  -1.5954841  16.5244257
  17.7156306  -1.3022308  15.8784051  17.8536854  -1.7101920  17.3297453
   8.8207517   4.4303820  22.2519247   9.5622202   4.9688864  21.9754071
   8.1144503   5.0570109  22.4090799  14.2962857   6.5732960  20.8491409
  14.7046213   6.1315371  20.1046041  13.5740119   5.9985588  21.1025602
  14.6191672   7.1334151  14.6043698  13.9900534   7.2979865  13.9019765
  14.2317334   7.5475761  15.3754662  18.4980904   8.0688589  11.9588061
  17.8131942   8.4487490  11.4085095  18.5824753   8.6783915  12.6920009
  13.7993372  -0.8290065  19.8806139  13.5554304  -0.0748004  19.3440415
  14.0753303  -0.4504717  20.7153386  15.7531835   5.7148548  18.5583405
  15.9648730   6.3580308  17.8817786  15.7061583   4.8810864  18.0905335
   7.0643715   6.4180041  14.8073546   7.6345072   6.8467309  14.1691030
   7.6551826   6.1362625  15.5057732  16.8677663   8.5920503  16.7305762
  17.6895107   8.1900691  16.4488444  16.8640066   8.4888737  17.6821878
  10.6334267   8.1404547  18.8866473  10.6978699   8.6024954  19.7224644
   9.9245190   7.5101911  19.0148782  24.9583656   4.9359252  13.0790734
  24.2047365   4.3666650  12.9234738  25.0931197   4.9021916  14.0261368
  11.9750761  10.4296221  22.8845795  11.5314615   9.6432599  22.5666700
  12.6367974  10.6175371  22.2189686   6.7337882  11.9592022  17.4106474
   7.2845307  11.8309085  16.6383468   5.8949358  12.2586911  17.0601366
  14.0731999  10.7099020  20.9127196  14.0550474  11.5307902  20.4207465
  14.9951919  10.5853096  21.1377337  10.5305053   8.2243150  21.7550705
  11.0633390   7.4631438  21.5250013  10.0019134   7.9316802  22.4974859
  16.8750612   5.5478163  14.3836563  16.2174286   6.2377424  14.4716692
  17.6791011   5.9374595  14.7270549  16.4517867   8.8828537  10.5619647
  15.9980194   8.0419447  10.6184838  15.8211833   9.5189935  10.8994428
  14.8950806  10.7205034  11.4969466  15.1873780  11.2810091  10.7781831
  15.4049426  11.0133595  12.2522625   9.8584431  11.4985385  12.5862919
   9.8160610  11.7246231  11.6571451  10.7747130  11.2648759  12.7348720
  13.3050065   1.9669452  19.4843548  13.6599452   2.1940926  20.3438014
  13.9522196   2.2987829  18.8620803  19.0617181   7.1564415  15.2004148
  19.4953688   7.0639704  16.0487203  19.7748762   7.1321916  14.5624164
  12.7945076  10.7566509  16.7337249  12.8482099  11.3257446  17.5014965
  11.9259858  10.9268394  16.3691286  19.9232731   7.1988116  17.7337034
  20.1168621   8.1033926  17.9796309  19.8233349   6.7395535  18.5675619
  14.9847840   7.3494859  23.3077914  14.8333346   7.1205410  22.3907998
  14.9752519   8.3065460  23.3209260  11.7533176   4.9226771  18.2924181
  12.6825236   5.0737931  18.1193148  11.3324206   5.0110792  17.4372827
  10.5521508   8.9477436  16.0622719  10.4132593   8.5796220  16.9348657
   9.7636104   9.4625075  15.8906676  12.1026723   8.3259039  13.4511556
  11.7676556   8.2859809  14.3469206  11.6030669   7.6603754  12.9781967
   8.7053268   3.4446628  18.4647817   9.4152886   2.8039820  18.4234436
   8.6622576   3.6959523  19.3873998  16.6940046  10.3813981  21.3854396
  16.6352592   9.6973201  20.7184979  17.0959565  11.1232971  20.9335022
   5.7130745  17.1975895  14.1788115   5.9527343  17.8294419  14.8567134
   4.8699941  16.8463935  14.4653475  16.6957453   8.3453565  19.6168376
  15.8084232   8.0079487  19.7394775  17.2656005   7.6136596  19.8537141
  10.2258607  13.0055018  16.5829619  10.1528778  13.8109989  17.0948924
   9.7836000  13.2046983  15.7577641  10.0148386  12.2426788  10.0932441
   9.2315908  12.7848468  10.1870665  10.7141132  12.7600767  10.4926682
  21.1774794   3.7561783  14.3784938  21.1664670   4.6386498  14.0078871
  20.3092173   3.4033333  14.1839475  12.6857290  12.9041852  18.7387778
  13.3985263  13.5389316  18.6663679  12.1947319  13.0005718  17.9227780
   7.7369204  10.6536295  19.5593349   8.4378663  11.2872778  19.7122743
   7.2664319  10.9951027  18.7988988  15.5370490   3.2080902  17.3845899
  14.8841940   3.4556810  16.7298352  15.9150870   2.3945041  17.0508376
  12.4977664  13.2440596  11.4874069  12.6800058  12.4262252  11.9501822
  13.3210650  13.4608288  11.0498959  11.5858063   3.9500714  23.8711936
  10.9098700   3.8494843  24.5414311  12.4085697   3.7939927  24.3347933
   3.3336922  10.1872650  16.4924451   3.9190359   9.4416338  16.6252356
   3.1361760  10.4976607  17.3761115   6.1875577  13.2223897  11.5086894
   5.5185952  13.7070025  11.0250934   6.0488447  13.4693118  12.4230272
  10.3280846  15.2567641  18.1069552  10.8799154  15.4199262  18.8718637
  10.6687039  15.8472079  17.4349577  15.1791720  10.0828898  23.9618207
  15.7231624  10.6958857  23.4673161  14.5978565  10.6408477  24.4785220
  13.4649233  13.2049616  15.0933234  13.3400373  12.4039356  14.5844180
  14.1228324  13.6995810  14.6047204  15.5284141  11.0058637  16.7212784
  14.5814477  10.8863988  16.6491111  15.8766915  10.1181135  16.8039046
  12.5330575  10.8011353  12.9217137  12.3855537   9.8728060  13.1024707
  13.3584068  10.8231443  12.4374212  16.1364697  11.6239912  14.0082009
  17.0611244  11.4182773  13.8706461  15.9680000  11.3756313  14.9171351
  15.9260013  12.1425579   9.3644101  16.0996890  11.5772001   8.6117953
  16.4188904  12.9426474   9.1823591  21.7799404   4.9062002  10.9834401
  22.2230550   4.1569327  10.5853524  20.9025914   4.8972138  10.6008133
  10.4746657  12.8226123  20.1218207  10.7833784  12.5775269  20.9940906
  11.2722139  13.0272761  19.6337077  10.4967269  14.9764032  12.3523583
  10.0572259  14.4840411  13.0456440  11.2475386  14.4337000  12.1115658
   7.9441141  10.5202041  14.4245885   7.3221151   9.8572746  14.1248113
   8.6146008  10.5463173  13.7419533  18.5020514   9.5424953  23.2979528
  17.7116058   9.5249091  22.7584027  18.2653869  10.0813246  24.0528564
  18.6218390   6.3917419  20.6112256  18.6716394   6.2267426  21.5527779
  18.5132313   5.5244678  20.2210137  15.9122152   2.3748347  21.9271563
  16.8132015   2.2354812  21.6355561  15.9870126   2.5402802  22.8669741
  20.1236586   8.8114360  20.8554278  19.8321395   9.1744341  21.6917739
  19.5108718   8.0981369  20.6767610  21.3232269   6.3767240  13.3756848
  22.1579160   6.8157044  13.5394408  21.4591397   5.9005893  12.5565094
  18.3723775   3.9346975  19.3234336  18.8477896   4.1274621  18.5153187
  17.4489340   3.9906161  19.0777720  17.0725444   0.8112735  17.5562642
  18.0242866   0.9110833  17.5774866  16.9028894   0.0191004  18.0660726
  19.5513521   4.0318855  16.6704941  19.5189841   3.0934856  16.8564625
  20.1614145   4.1102892  15.9370766  19.7008010   0.8229898  16.7163224
  19.1847059   0.0388355  16.5293153  20.5847958   0.4948615  16.8809744
  25.3690071   5.0934862  15.8110978  26.0993460   4.8320150  16.3718681
  24.7597017   4.3563584  15.8513046  23.4505368   3.2342724  16.4085429
  22.7238532   3.0998689  15.8001921  23.0352655   3.5419553  17.2142147
  11.2735545   6.9532654  24.1732802  12.1938554   7.1311253  24.3672849
  11.2385128   6.0088699  24.0212501   9.0056753   3.8664033  25.0223394
   8.5223834   4.6664393  25.2287283   9.0917692   3.8771978  24.0690838
   4.9330090   7.7568568  17.0591828   5.8873344   7.7252510  16.9921759
   4.7342614   7.2959192  17.8742054   5.5229472   6.3269684  19.6262625
   6.3422361   6.8213763  19.6497463   5.7966280   5.4101652  19.5980193
  21.0683163  -0.5445424  13.7618861  21.6627654  -0.7849688  13.0512169
  21.1409747  -1.2638293  14.3892397   3.2880319  13.2988187  14.0762026
   3.1534787  12.5388588  13.5100024   2.8712381  14.0229087  13.6090814
  23.3754236   2.7620777  12.5362282  22.8153794   2.8313967  13.3093844
  22.7697739   2.5861762  11.8161778   6.4449445  14.1957504  14.2880468
   6.3281829  15.1402937  14.1859158   5.6241891  13.8931066  14.6766267
  13.3017779   7.7288665  25.8246963  14.1708938   7.9029318  25.4633598
  12.8224530   8.5483082  25.7022692   7.4703959  14.8485766  17.5036397
   8.3731206  14.8809377  17.8202892   7.2441329  13.9186217  17.5182732
   9.2257561  13.6016753  14.1646475   8.2753192  13.6018614  14.0510848
   9.5290047  12.8549487  13.6482510  24.9610254  19.4377291  15.2292238
  25.5988664  19.3184039  14.5255578  24.8431097  20.3858135  15.2880190
  21.7699961  19.3904719  15.1653762  21.4318472  19.2745784  14.2774297
  22.6389729  18.9895884  15.1454768  17.6286776  21.2440196  11.1550653
  17.0651642  21.1530133  10.3866941  17.5139172  20.4240100  11.6353146
  22.2519744  20.5439571  21.1239968  22.2408385  20.1492369  20.2520472
  22.4140383  19.8105644  21.7173739  15.1751208  22.7391387  13.9934874
  15.9672500  22.3982212  13.5781173  15.4147859  22.8486362  14.9137027
  23.2086335  24.9111163   6.4665118  22.5574315  25.4965244   6.0799132
  24.0030698  25.4417358   6.5260156  17.1341962  22.0000301   6.8652253
  17.9072838  21.4529288   6.7265128  17.4867361  22.8644550   7.0766714
  18.9727005  23.3276683  20.0719152  18.6816871  24.2322314  19.9565818
  19.6083989  23.3693210  20.7863221  19.8983212  20.7053531  16.6620512
  20.4946784  20.4809554  15.9477474  19.9558183  19.9638277  17.2645959
  19.4708240  18.1592967   4.4970702  19.7233761  17.6374488   3.7354165
  18.5332799  17.9959112   4.5997386  24.5151523  17.1628745  12.3045446
  25.3014612  16.7448168  11.9535863  24.7790227  18.0674837  12.4727094
  24.6861600  22.6001595   7.0034103  24.0507433  22.6736222   7.7155007
  24.3559007  23.1895194   6.3253182  29.9159950  17.1003978  13.2078424
  30.6485122  16.5303195  13.4416254  29.1599306  16.7125579  13.6484930
  19.1904529  20.0621073   6.6995077  19.0740787  19.3865976   7.3676162
  19.3006789  19.5753447   5.8827230  21.5336070  19.5231220  10.4041767
  21.1694277  18.9961841  11.1154688  22.3903186  19.1329689  10.2308252
  27.4385370  10.8125552  17.6673033  27.1068695  11.6820963  17.4434248
  26.8430984  10.4961836  18.3467063  21.1741557  14.5521119   5.4003115
  21.3415959  15.4201356   5.7673586  20.9838726  14.7148401   4.4764404
  23.9316890  23.0138098  17.0668946  23.6317613  23.9163137  16.9584753
  23.5867949  22.7470282  17.9190098  17.3829371  19.4651895  13.1005650
  16.4579868  19.3328109  13.3083342  17.6313785  20.2446114  13.5975592
  27.3314034  15.5320639  14.7466383  26.4230911  15.4636047  14.4525144
  27.2801630  16.0092584  15.5748208  21.1530778  17.0078777   6.3849782
  21.0330403  17.4535828   7.2235262  20.4583366  17.3564095   5.8263320
  14.7438182  19.1085169  13.9349439  14.8730564  19.3619648  14.8488851
  14.0635634  19.7012877  13.6154094  18.9137670  29.7782419  10.0339913
  18.8361699  30.7290244  10.1128394  18.3099313  29.4328291  10.6914840
  21.4054900  16.9510284  22.6901280  20.6288234  17.5104204  22.6804145
  22.0445463  17.4367067  23.2116150  29.1975680  13.7337077  16.5244257
  28.5550060  14.0269610  15.8784051  28.6930609  13.6189997  17.3297453
  26.8515844  17.4800250   7.2130116  27.7633700  17.7127637   7.0377814
  26.3425491  18.0637294   6.6505195  19.6601272  19.7595738  22.2519247
  20.4015956  20.2980781  21.9754071  18.9538257  20.3862026  22.4090799
  25.1356611  21.9024878  20.8491409  25.5439968  21.4607289  20.1046041
  24.4133873  21.3277506  21.1025602  21.4887682  16.8397485  18.2224966
  22.3348877  17.2636898  18.3659615  21.4286319  16.1831109  18.9163529
  25.4585426  22.4626069  14.6043698  24.8294289  22.6271783  13.9019765
  25.0711088  22.8767678  15.3754662  29.3374658  23.3980506  11.9588061
  28.6525696  23.7779408  11.4085095  29.4218507  24.0075833  12.6920009
  24.6387127  14.5001853  19.8806139  24.3948059  15.2543914  19.3440415
  24.9147057  14.8787201  20.7153386  26.5925590  21.0440465  18.5583405
  26.8042485  21.6872225  17.8817786  26.5455338  20.2102782  18.0905335
  24.1951819  13.6558286  15.4619977  23.3336298  13.9539540  15.7536715
  24.2214253  13.8728685  14.5301010  21.0113388  22.2000477  11.8693783
  21.4751734  22.4788180  11.0798405  20.7470186  21.2983921  11.6866873
  17.9037469  21.7471958  14.8073546  18.4738826  22.1759227  14.1691030
  18.4945581  21.4654543  15.5057732  19.9482274  18.3223629   8.6783348
  20.6506317  18.7744673   9.1457274  19.6162903  17.6807448   9.3063241
  18.3962636  16.9135386  23.0534557  17.7661296  17.5951667  23.2869954
  18.2898723  16.8018467  22.1087695  13.6907608  16.5807182  13.9800481
  12.9006662  16.8364710  13.5040592  14.1818855  17.3955520  14.0852522
  15.6422353  16.9451761  10.9383958  14.8453517  17.0570455  11.4567454
  15.4147946  17.2838413  10.0724849  21.4728021  23.4696464  18.8866473
  21.5372454  23.9316871  19.7224644  20.7638945  22.8393829  19.0148782
  11.9745311  16.8337672  16.4115472  12.2253349  17.7184682  16.6773048
  12.5104859  16.6542274  15.6390564  35.7977411  20.2651169  13.0790734
  35.0441119  19.6958567  12.9234738  35.9324952  20.2313834  14.0261368
  21.1876039  25.1364572   8.7545453  21.0521713  25.9816107   9.1830301
  21.7285851  25.3383849   7.9911387  17.6743378  11.2156152  25.4159808
  17.2810324  10.6622350  26.0907452  18.4909519  11.5266730  25.8066326
  14.6405436  22.6540010   9.3273378  15.1529957  23.4483260   9.4778943
  15.2928149  21.9566300   9.2606980  16.4500321  25.7705766  11.4096131
  16.6266949  26.6923731  11.2217115  17.2457154  25.4564185  11.8390511
  20.5911339  12.6314031  23.0080065  21.3321053  13.2321184  22.9284527
  20.8229262  11.8891668  22.4498107  15.7352677  17.8170398  21.2858294
  15.6206192  16.9155655  21.5865393  14.8797195  18.0634095  20.9343111
  17.5731636  27.2883940  17.4106474  18.1239061  27.1601003  16.6383468
  16.7343112  27.5878829  17.0601366  21.3698807  23.5535068  21.7550705
  21.9027144  22.7923356  21.5250013  20.8412888  23.2608719  22.4974859
  24.5368502   8.6595134  17.2844346  24.1932772   9.5496775  17.2083457
  24.9047465   8.4696791  16.4213931  12.6054353  20.9828664  10.1032949
  13.4429575  21.3925672   9.8866656  12.7832621  20.0428106  10.0733142
  24.5018785  18.6503745   5.7916782  23.9865408  19.4208349   6.0305169
  24.2296093  17.9768881   6.4149843  22.0865896  13.4953445  10.8502020
  21.2307492  13.1060296  10.6707659  22.4992848  13.5745406   9.9901805
  23.6165043  11.0299789  15.2493580  23.1129838  10.9929924  14.4361385
  23.9095650  11.9392531  15.3090236  19.8607929  11.1138518  14.2559761
  20.7260925  10.9181327  13.8965651  19.9285437  10.8848870  15.1829118
  29.4753059  21.4036099   7.7269955  28.6982502  21.0647259   7.2825117
  30.1544540  21.4088723   7.0524920  24.2905088  16.5230837   7.6176563
  23.9855224  16.8376986   8.4686706  25.2435530  16.6012257   7.6603896
  22.7351520  22.6821060   9.2669517  22.2072882  21.9473820   8.9542754
  22.2339023  23.4595736   9.0209485  27.7144366  20.8770081  14.3836563
  27.0568040  21.5669342  14.4716692  28.5184765  21.2666513  14.7270549
  17.4670248  13.3440726  11.6276128  18.0414000  13.1215908  10.8949321
  18.0541230  13.4129421  12.3804730  26.5249825  19.2314453  12.4340505
  27.0381707  19.8644445  12.9362214  27.1751049  18.6315649  12.0683865
  19.7692915  10.2181975  10.3551198  19.1157328   9.9030992   9.7307812
  19.7273389   9.5957716  11.0811021  20.8804120  20.5001270   2.2704490
  19.9731182  20.2690524   2.4695639  21.3775152  19.7038890   2.4578471
  23.7872199  29.2098778   5.1901176  23.1133898  29.5130474   5.7986134
  24.1738021  30.0127858   4.8406633  23.0030656  16.7063909  14.6798845
  22.0853217  16.9278856  14.5220533  23.4190799  16.7810219  13.8210553
  23.7865703  18.1055325   9.8101526  24.5337522  18.6176722   9.5008648
  24.0557293  17.7839377  10.6705919  22.0592354  20.6013865   6.7928480
  21.1503573  20.3172898   6.8900950  22.0887437  21.0212944   5.9331787
  27.2911621  24.2120455  10.5619647  26.8373948  23.3711365  10.6184838
  26.6605588  24.8481853  10.8994428  26.2344541  15.1412441  11.7920315
  25.4967297  14.6289827  12.1230557  26.4871314  14.7012822  10.9803592
  25.7344560  26.0496951  11.4969466  26.0267535  26.6102009  10.7781831
  26.2443181  26.3425512  12.2522625  26.3356168   7.9188693  12.3862084
  26.6415045   7.0586056  12.0987999  27.0608773   8.5106313  12.1861078
  12.6280524  18.3219379  10.7743682  12.4304924  17.7288740  10.0494749
  12.0727188  18.0171590  11.4919621  20.6077248  18.2142486  12.8938275
  20.6625857  17.2616322  12.8180752  19.7968450  18.3701925  13.3779574
  21.7568441  22.1422609   4.1316558  21.3187871  21.4258468   3.6722196
  22.4978882  22.3698724   3.5701650  18.5469608  16.8319546  10.6528654
  17.7337473  17.1313716  11.0593846  19.0428602  16.4375234  11.3703136
  20.6978185  26.8277303  12.5862919  20.6554364  27.0538149  11.6571451
  21.6140884  26.5940677  12.7348720  24.1443819  17.2961370  19.4843548
  24.4993207  17.5232843  20.3438014  24.7915950  17.6279747  18.8620803
  29.8741556  20.4179806  10.1892877  29.7359455  20.6081402   9.2614066
  29.5177775  21.1799189  10.6460928  18.0383682  14.4037901  16.2689889
  18.6783062  14.2626660  15.5712852  17.2061213  14.1172414  15.8928491
  29.9010936  22.4856333  15.2004148  30.3347442  22.3931622  16.0487203
  30.6142517  22.4613833  14.5624164  18.8143986  23.7040332  12.3824881
  19.6084585  23.2090652  12.1807456  18.1035679  23.1758195  12.0192587
  23.6338831  26.0858427  16.7337249  23.6875853  26.6549363  17.5014965
  22.7653612  26.2560312  16.3691286  15.1226750  17.8483413   8.4584634
  14.1924338  17.7867869   8.6754596  15.2184222  17.3259366   7.6621275
  15.0412299  14.3738226  11.0462876  15.3019116  15.2883559  10.9372036
  15.8629471  13.9062669  11.1959489  16.5137224  15.7875983  18.2161700
  17.1860278  15.5793345  17.5674349  15.6867011  15.5898069  17.7766933
  30.7626485  22.5280034  17.7337034  30.9562375  23.4325844  17.9796309
  30.6627104  22.0687453  18.5675619  22.4162796  12.4137924  20.2327361
  21.7690711  13.1127874  20.1391838  23.1863812  12.8474068  20.6003609
  22.5926930  20.2518689  18.2924181  23.5218990  20.4029849  18.1193148
  22.1717960  20.3402710  17.4372827  21.3915262  24.2769354  16.0622719
  21.2526348  23.9088138  16.9348657  20.6029858  24.7916993  15.8906676
  21.9863414  29.3778450   7.4048255  22.1615170  28.9066493   8.2193878
  21.2996202  30.0044216   7.6329516  22.9420477  23.6550956  13.4511556
  22.6070310  23.6151726  14.3469206  22.4424423  22.9895672  12.9781967
  16.9164721  19.0618586  18.9764138  16.7784519  18.3298825  19.5775677
  17.8269645  18.9727486  18.6948325  25.8779669  21.0006991   3.7248616
  25.2608840  20.2753819   3.6281669  25.4096157  21.7616351   3.3815690
  19.5447022  18.7738546  18.4647817  20.2546641  18.1331738  18.4234436
  19.5016330  19.0251440  19.3873998  18.2575956  15.7603763  20.2843457
  17.7213313  15.3094502  20.9365053  17.6692664  15.8949672  19.5413921
  16.5524499  32.5267813  14.1788115  16.7921098  33.1586337  14.8567134
  15.7093696  32.1755853  14.4653475   9.1880355  20.0069575  12.9411427
   9.8751395  19.6931305  12.3532443   9.0328484  20.9110939  12.6678679
  13.9915077  14.8959771  17.3696451  13.9073266  14.2885441  16.6346861
  13.1697784  15.3868789  17.3705947  21.0652361  28.3346935  16.5829619
  20.9922533  29.1401907  17.0948924  20.6229754  28.5338901  15.7577641
  20.8542141  27.5718705  10.0932441  20.0709663  28.1140385  10.1870665
  21.5534886  28.0892685  10.4926682  24.1638791  13.3813335  12.7366646
  24.6607491  12.6283297  12.4167716  23.3925773  13.4177651  12.1709855
  32.0168549  19.0853700  14.3784938  32.0058425  19.9678416  14.0078871
  31.1485928  18.7325251  14.1839475  25.2468572  22.1385022  10.3105070
  24.3124851  22.2586484  10.1409774  25.4245240  21.2357489  10.0465079
  20.7473760  15.5230718  12.4638331  20.3771547  14.9701758  13.1519236
  21.2432852  14.9188851  11.9113331  28.6341123  17.9802341  10.8455104
  29.1001575  18.8130333  10.7715406  29.0848624  17.5147323  11.5500362
  18.5762958  25.9828213  19.5593349  19.2772418  26.6164696  19.7122743
  18.1058073  26.3242944  18.7988988  26.7017354  24.3246162   7.8441256
  26.9777198  24.2102757   8.7535130  25.8321853  23.9263647   7.8053429
  26.6057786  10.3482928  14.8846005  25.6920866  10.5787155  15.0528212
  27.0350887  10.4321372  15.7360037  26.3764244  18.5372820  17.3845899
  25.7235695  18.7848728  16.7298352  26.7544624  17.7236958  17.0508376
  23.3371418  28.5732513  11.4874069  23.5193813  27.7554169  11.9501822
  24.1604404  28.7900206  11.0498959  23.6713584  27.5000698   8.7489118
  24.2001350  26.9893153   8.1359280  23.9341803  27.1843229   9.6134651
  22.4251817  19.2792631  23.8711936  21.7492454  19.1786761  24.5414311
  23.2479451  19.1231845  24.3347933  14.1730676  25.5164568  16.4924451
  14.7584113  24.7708256  16.6252356  13.9755515  25.8268524  17.3761115
  17.0269332  28.5515815  11.5086894  16.3579707  29.0361943  11.0250934
  16.8882201  28.7985036  12.4230272   8.7648331  18.0870168  15.2128895
   8.8032431  17.5533759  16.0066013   8.2588624  17.5605373  14.5939872
  21.1674600  30.5859559  18.1069552  21.7192908  30.7491180  18.8718637
  21.5080794  31.1763996  17.4349577  16.1439094  12.9334708  18.7091437
  16.2080420  13.7949539  18.2968835  16.0806214  12.3208710  17.9763795
  15.6191366  15.0057841  22.3564471  16.2463405  14.6234918  22.9701995
  14.7619285  14.7872043  22.7220164  12.3956909  16.8134270   8.2882826
  12.6910350  15.9044949   8.2349880  11.4944945  16.7922010   7.9663828
  24.3042988  28.5341534  15.0933234  24.1794127  27.7331274  14.5844180
  24.9622079  29.0287728  14.6047204  15.9251156  14.8890267  14.2710375
  15.2037742  15.5026234  14.1317848  16.7144412  15.4248031  14.1927020
  18.7277469  12.2244693  20.5451026  19.2511871  12.4706990  21.3077336
  18.5089803  13.0564728  20.1254164  14.1244750  14.4948368   8.4122151
  13.7957457  13.6145747   8.2297257  14.4784121  14.4396036   9.2998540
  23.3724329  26.1303270  12.9217137  23.2249292  25.2019978  13.1024707
  24.1977823  26.1523361  12.4374212  17.2386574  14.7821338   8.7797629
  17.5782646  15.3107259   8.0576237  17.6858694  15.1201744   9.5556195
  19.9330014  13.1658388  18.2300697  19.5926835  12.3666201  18.6321377
  19.2269021  13.4660099  17.6577530  20.5846486  10.2507701  16.6828020
  21.4072555   9.7768179  16.5606910  20.8284550  11.0298184  17.1826706
  19.2254721  13.2795959   6.9790922  19.9463083  13.6577212   6.4754638
  18.6020025  13.9984836   7.0825899  23.3685844  13.9841108   7.9149254
  23.5849458  14.8665746   7.6138082  22.8879911  13.5927322   7.1854896
  18.1085065  16.9426821  14.4919998  17.9629646  17.2567124  15.3844280
  17.6310269  17.5611722  13.9390897  19.9681448  13.9329369  14.5400888
  19.9543017  13.0370463  14.2033186  20.6853876  13.9400033  15.1739174
  21.8207579  14.3666710  16.5854015  21.5625356  15.2883780  16.5838346
  21.2892619  13.9697144  17.2754480  26.7653767  27.4717497   9.3644101
  26.9390645  26.9063919   8.6117953  27.2582659  28.2718392   9.1823591
  12.5830727  19.4832166  17.4307660  12.0384195  20.2591974  17.5627934
  13.4610077  19.8302970  17.2726781  19.3718344  12.8143750   9.8088458
  19.4934255  11.8860396  10.0079346  19.0820386  12.8282436   8.8966774
  22.2409534  10.4998660  12.9455178  22.2631231  10.5637993  11.9907158
  22.6577593   9.6603169  13.1395684  32.6193158  20.2353920  10.9834401
  33.0624305  19.4861245  10.5853524  31.7419669  20.2264056  10.6008133
  27.7528940  26.7884261   6.4640999  28.4479844  27.4090954   6.6828314
  28.0952090  25.9379612   6.7393377  13.3696749  18.6102062  20.3237816
  12.6278485  18.7584697  20.9102447  13.0489493  18.8710328  19.4604566
  29.6520363  24.2383967   7.9928330  30.1771687  24.5771239   7.2677650
  29.5642715  23.3030982   7.8091464  21.3361024  30.3055950  12.3523583
  20.8966014  29.8132329  13.0456440  22.0869141  29.7628918  12.1115658
  13.8153363  26.4967491  12.3548211  14.6411383  26.1971263  11.9746855
  13.4647415  25.7275113  12.8038000  18.7834896  25.8493959  14.4245885
  18.1614905  25.1864664  14.1248113  19.4539763  25.8755091  13.7419533
  12.0161968  24.4153817  13.3137145  11.1793876  23.9875992  13.1321146
  11.9885613  24.6086261  14.2507936  18.8559423  14.3275747  24.0178391
  18.9047579  15.2037870  23.6356160  19.3981938  13.7853140  23.4450034
  18.3448403  24.3997882   7.9004345  18.4936523  25.0833347   7.2471018
  19.1514846  24.3802972   8.4153801  26.7515906  17.7040265  21.9271563
  27.6525769  17.5646729  21.6355561  26.8263881  17.8694719  22.8669741
  21.0858712  15.0807119  20.7724749  20.2162021  15.3740685  20.5007338
  21.3218192  15.6647564  21.4932013  32.1626023  21.7059158  13.3756848
  32.9972915  22.1448962  13.5394408  32.2985152  21.2297811  12.5565094
  29.2117529  19.2638893  19.3234336  29.6871651  19.4566539  18.5153187
  28.2883094  19.3198079  19.0777720  16.1001036  20.4263060   8.9065414
  15.8547078  19.5225390   9.1045624  16.2696950  20.4280210   7.9644892
  23.7897746  11.2986736  18.2890170  24.3079689  12.0347763  17.9636658
  23.4352878  11.6050730  19.1236929  24.0410340   7.7187019  13.8091066
  24.3212094   7.0510208  14.4351493  24.8260947   7.9116114  13.2965730
  21.8443808  26.8946013   5.3716093  21.2717775  27.5136200   4.9186565
  22.4176602  27.4445374   5.9056015  27.9119198  16.1404653  17.5562642
  28.8636621  16.2402750  17.5774866  27.7422649  15.3482921  18.0660726
  25.9333578  13.2260236  17.7422042  25.3383510  13.5065249  17.0468531
  25.6483274  13.7154137  18.5138784  25.0641068  27.1783163   6.5024675
  25.9971741  27.1128725   6.7057550  24.9764281  28.0139430   6.0439208
  27.6929085  26.4949033   3.4628623  27.6142716  26.1608897   4.3564380
  28.5138751  26.9870801   3.4620095  30.3907276  19.3610773  16.6704941
  30.3583596  18.4226773  16.8564625  31.0007900  19.4394809  15.9370766
  22.2290607  18.2306826   2.7132145  23.1749711  18.1013034   2.7820563
  21.8504852  17.4921487   3.1901573  30.5401764  16.1521816  16.7163224
  30.0240813  15.3680273  16.5293153  31.4241713  15.8240533  16.8809744
  28.2012491   9.8962832  12.6759037  28.0037312   9.5877920  13.5602369
  28.8112197  10.6224470  12.8056967  36.2083826  20.4226779  15.8110978
  36.9387214  20.1612067  16.3718681  35.5990771  19.6855501  15.8513046
  34.2899123  18.5634642  16.4085429  33.5632286  18.4290607  15.8001921
  33.8746410  18.8711471  17.2142147  11.3311464  17.4763165  13.0986077
  11.0114249  16.6228473  12.8060451  10.7844892  17.6911743  13.8544044
  15.1091372  20.1925606  16.8155583  15.3277382  21.1242714  16.8343617
  15.5217146  19.8333581  17.6010387  22.0295590  10.6993692   8.8031272
  21.2196318  10.3540777   9.1786518  22.7180007  10.3901235   9.3918883
  23.9586138   9.7771738  10.4255568  24.5117177  10.1967192  11.0845591
  24.1956224   8.8507487  10.4678524  19.9819237  15.7658812  26.2058332
  19.8815964  16.7153169  26.1370423  19.7640779  15.4377051  25.3334402
  11.1999724  21.0966077  15.0679198  10.5063196  20.6820030  14.5549153
  11.9472715  21.1386613  14.4712617  27.3364945  11.8872264   9.9334233
  26.7563614  12.5457068   9.5512285  27.0700878  11.0649608   9.5221650
  25.7868511  11.2877321  12.1355553  26.2868290  11.3993856  11.3269872
  26.4304119  10.9838374  12.7756361  19.8450507  19.1955951  25.0223394
  19.3617589  19.9956311  25.2287283  19.9311446  19.2063896  24.0690838
  13.1136467  21.0284331  12.9445213  13.0907155  21.1272018  11.9927096
  13.4237103  21.8749481  13.2662379  15.7723845  23.0860486  17.0591828
  16.7267098  23.0544428  16.9921759  15.5736368  22.6251109  17.8742054
  16.3623227  21.6561602  19.6262625  17.1816116  22.1505680  19.6497463
  16.6360035  20.7393570  19.5980193  26.1189823  14.0472354   8.9890581
  25.2315678  14.3322005   8.7710776  26.5343812  13.8866117   8.1417858
  29.4704359  14.0718875  12.7044920  30.2464749  14.5615327  12.9769537
  28.7452493  14.4976929  13.1616790  31.9076918  14.7846494  13.7618861
  32.5021409  14.5442230  13.0512169  31.9803501  14.0653625  14.3892397
  14.1274073  28.6280105  14.0762026  13.9928541  27.8680506  13.5100024
  13.7106136  29.3521005  13.6090814  25.2633036  23.8117029   3.0838601
  25.9668887  24.0167031   3.6996256  24.5395685  24.3793791   3.3487684
  26.0930847  19.5626890   9.2040871  26.0366048  20.0195441   8.3648503
  26.6459189  18.8017574   9.0263714  29.9035653  15.3516622  10.0290991
  29.6472587  14.9513257  10.8599198  29.2788521  16.0660416   9.9041130
  34.2147991  18.0912695  12.5362282  33.6547548  18.1605884  13.3093844
  33.6091494  17.9153680  11.8161778  17.2843199  29.5249422  14.2880468
  17.1675583  30.4694855  14.1859158  16.4635646  29.2222984  14.6766267
  27.1719734  24.2499558   5.1337061  28.0065338  23.8180756   4.9514536
  27.0104077  24.0781572   6.0613955  26.8265626  20.7531671   6.4993400
  26.7714430  20.5875943   5.5581844  26.2011681  21.4607704   6.6555590
  11.6158141  15.9899736  20.3254822  12.2617005  15.4798689  20.8142048
  11.4075292  16.7268417  20.8998248  18.3097713  30.1777684  17.5036397
  19.2124960  30.2101294  17.8202892  18.0835084  29.2478135  17.5182732
  20.0651315  28.9308671  14.1646475  19.1146946  28.9310532  14.0510848
  20.3683802  28.1841405  13.6482510  23.9513871   6.8482557  10.3324655
  23.1846267   6.2941043  10.4781338  24.3624576   6.9204426  11.1938807
  15.9555632  13.1367353  24.4229837  16.8187094  12.7804157  24.6333161
  15.3821043  12.7981247  25.1105241  35.8004009  34.7669209  15.2292238
  36.4382419  34.6475956  14.5255578  35.6824852  35.7150053  15.2880190
  32.6093715  34.7196637  15.1653762  32.2712227  34.6037702  14.2774297
  33.4783483  34.3187802  15.1454768  28.4680531  36.5732113  11.1550653
  27.9045396  36.4822050  10.3866941  28.3532926  35.7532018  11.6353146
  33.0913498  35.8731489  21.1239968  33.0802139  35.4784287  20.2520472
  33.2534138  35.1397561  21.7173739  26.0144963  38.0683305  13.9934874
  26.8066255  37.7274130  13.5781173  26.2541613  38.1778280  14.9137027
  34.0480090  40.2403081   6.4665118  33.3968069  40.8257162   6.0799132
  34.8424452  40.7709276   6.5260156  27.9735717  37.3292218   6.8652253
  28.7466593  36.7821205   6.7265128  28.3261116  38.1936468   7.0766714
  29.8120759  38.6568601  20.0719152  29.5210625  39.5614231  19.9565818
  30.4477744  38.6985128  20.7863221  30.7376966  36.0345449  16.6620512
  31.3340538  35.8101471  15.9477474  30.7951938  35.2930195  17.2645959
  30.3101995  33.4884884   4.4970702  30.5627515  32.9666406   3.7354165
  29.3726554  33.3251030   4.5997386  35.3545277  32.4920663  12.3045446
  36.1408367  32.0740086  11.9535863  35.6183982  33.3966755  12.4727094
  35.5255355  37.9293513   7.0034103  34.8901188  38.0028140   7.7155007
  35.1952761  38.5187112   6.3253182  40.7553705  32.4295896  13.2078424
  41.4878877  31.8595113  13.4416254  39.9993060  32.0417496  13.6484930
  30.0298283  35.3912990   6.6995077  29.9134541  34.7157894   7.3676162
  30.1400543  34.9045364   5.8827230  32.3729824  34.8523137  10.4041767
  32.0088032  34.3253758  11.1154688  33.2296940  34.4621607  10.2308252
  38.2779125  26.1417470  17.6673033  37.9462450  27.0112881  17.4434248
  37.6824738  25.8253754  18.3467063  32.0135311  29.8813037   5.4003115
  32.1809714  30.7493274   5.7673586  31.8232480  30.0440319   4.4764404
  34.7710644  38.3430016  17.0668946  34.4711368  39.2455055  16.9584753
  34.4261704  38.0762199  17.9190098  28.2223126  34.7943813  13.1005650
  27.2973622  34.6620027  13.3083342  28.4707539  35.5738032  13.5975592
  38.1707788  30.8612556  14.7466383  37.2624666  30.7927965  14.4525144
  38.1195384  31.3384501  15.5748208  31.9924532  32.3370695   6.3849782
  31.8724157  32.7827745   7.2235262  31.2977121  32.6856012   5.8263320
  25.5831937  34.4377086  13.9349439  25.7124318  34.6911565  14.8488851
  24.9029388  35.0304794  13.6154094  29.7531424  45.1074336  10.0339913
  29.6755454  46.0582162  10.1128394  29.1493068  44.7620209  10.6914840
  32.2448654  32.2802202  22.6901280  31.4681988  32.8396122  22.6804145
  32.8839217  32.7658985  23.2116150  40.0369435  29.0628995  16.5244257
  39.3943815  29.3561528  15.8784051  39.5324363  28.9481915  17.3297453
  37.6909598  32.8092168   7.2130116  38.6027454  33.0419555   7.0377814
  37.1819245  33.3929212   6.6505195  30.4995026  35.0887655  22.2519247
  31.2409711  35.6272699  21.9754071  29.7932012  35.7153944  22.4090799
  35.9750366  37.2316796  20.8491409  36.3833722  36.7899206  20.1046041
  35.2527627  36.6569423  21.1025602  32.3281436  32.1689402  18.2224966
  33.1742631  32.5928816  18.3659615  32.2680074  31.5123027  18.9163529
  36.2979181  37.7917986  14.6043698  35.6688043  37.9563700  13.9019765
  35.9104843  38.2059596  15.3754662  40.1768413  38.7272424  11.9588061
  39.4919451  39.1071326  11.4085095  40.2612262  39.3367751  12.6920009
  37.4319344  36.3732383  18.5583405  37.6436239  37.0164143  17.8817786
  37.3849092  35.5394700  18.0905335  31.8507143  37.5292394  11.8693783
  32.3145488  37.8080097  11.0798405  31.5863941  36.6275839  11.6866873
  28.7431224  37.0763876  14.8073546  29.3132581  37.5051144  14.1691030
  29.3339335  36.7946461  15.5057732  30.7876029  33.6515547   8.6783348
  31.4900072  34.1036590   9.1457274  30.4556657  33.0099366   9.3063241
  24.5301363  31.9099099  13.9800481  23.7400417  32.1656628  13.5040592
  25.0212610  32.7247437  14.0852522  38.5465172  39.2504339  16.7305762
  39.3682616  38.8484526  16.4488444  38.5427575  39.1472573  17.6821878
  26.4816108  32.2743679  10.9383958  25.6847271  32.3862373  11.4567454
  26.2541700  32.6130331  10.0724849  32.3121776  38.7988382  18.8866473
  32.3766208  39.2608789  19.7224644  31.6032699  38.1685747  19.0148782
  22.8139066  32.1629590  16.4115472  23.0647104  33.0476600  16.6773048
  23.3498614  31.9834191  15.6390564  46.6371165  35.5943087  13.0790734
  45.8834874  35.0250485  12.9234738  46.7718706  35.5605752  14.0261368
  32.0269793  40.4656489   8.7545453  31.8915468  41.3108025   9.1830301
  32.5679606  40.6675767   7.9911387  25.4799191  37.9831927   9.3273378
  25.9923711  38.7775178   9.4778943  26.1321903  37.2858218   9.2606980
  27.2894075  41.0997684  11.4096131  27.4660704  42.0215648  11.2217115
  28.0850909  40.7856103  11.8390511  33.6538270  41.0880056  22.8845795
  33.2102124  40.3016434  22.5666700  34.3155483  41.2759206  22.2189686
  28.4125391  42.6175857  17.4106474  28.9632816  42.4892921  16.6383468
  27.5736867  42.9170747  17.0601366  35.7519508  41.3682856  20.9127196
  35.7337983  42.1891737  20.4207465  36.6739428  41.2436931  21.1377337
  32.2092562  38.8826985  21.7550705  32.7420899  38.1215273  21.5250013
  31.6806643  38.5900637  22.4974859  23.4448107  36.3120582  10.1032949
  24.2823329  36.7217590   9.8866656  23.6226375  35.3720024  10.0733142
  35.3412539  33.9795662   5.7916782  34.8259163  34.7500267   6.0305169
  35.0689848  33.3060799   6.4149843  32.9259651  28.8245363  10.8502020
  32.0701247  28.4352214  10.6707659  33.3386602  28.9037324   9.9901805
  40.3146814  36.7328017   7.7269955  39.5376256  36.3939177   7.2825117
  40.9938295  36.7380640   7.0524920  35.1298843  31.8522754   7.6176563
  34.8248978  32.1668904   8.4686706  36.0829285  31.9304174   7.6603896
  33.5745274  38.0112978   9.2669517  33.0466636  37.2765737   8.9542754
  33.0732777  38.7887654   9.0209485  38.5538121  36.2061998  14.3836563
  37.8961795  36.8961260  14.4716692  39.3578520  36.5958430  14.7270549
  28.3064002  28.6732644  11.6276128  28.8807754  28.4507826  10.8949321
  28.8934985  28.7421339  12.3804730  37.3643579  34.5606371  12.4340505
  37.8775461  35.1936363  12.9362214  38.0144803  33.9607566  12.0683865
  28.6333589  30.7037105   5.6472013  27.7970901  31.0411792   5.9681288
  28.4938359  30.5686085   4.7099150  30.6086670  25.5473893  10.3551198
  29.9551082  25.2322910   9.7307812  30.5667144  24.9249633  11.0811021
  31.7197875  35.8293188   2.2704490  30.8124936  35.5982441   2.4695639
  32.2168907  35.0330807   2.4578471  33.8424410  32.0355827  14.6798845
  32.9246972  32.2570774  14.5220533  34.2584554  32.1102137  13.8210553
  34.6259458  33.4347242   9.8101526  35.3731277  33.9468639   9.5008648
  34.8951047  33.1131295  10.6705919  32.8986108  35.9305783   6.7928480
  31.9897327  35.6464816   6.8900950  32.9281192  36.3504861   5.9331787
  38.1305376  39.5412372  10.5619647  37.6767703  38.7003282  10.6184838
  37.4999342  40.1773771  10.8994428  37.0738295  30.4704358  11.7920315
  36.3361052  29.9581745  12.1230557  37.3265069  30.0304740  10.9803592
  36.5738315  41.3788869  11.4969466  36.8661289  41.9393926  10.7781831
  37.0836935  41.6717430  12.2522625  37.1749922  23.2480610  12.3862084
  37.4808799  22.3877974  12.0987999  37.9002527  23.8398231  12.1861078
  23.4674278  33.6511297  10.7743682  23.2698678  33.0580658  10.0494749
  22.9120942  33.3463507  11.4919621  31.4471002  33.5434404  12.8938275
  31.5019612  32.5908240  12.8180752  30.6362204  33.6993843  13.3779574
  32.5962196  37.4714527   4.1316558  32.1581626  36.7550386   3.6722196
  33.3372637  37.6990641   3.5701650  29.3863362  32.1611463  10.6528654
  28.5731228  32.4605634  11.0593846  29.8822356  31.7667152  11.3703136
  31.5371940  42.1569220  12.5862919  31.4948119  42.3830066  11.6571451
  32.4534639  41.9232595  12.7348720  34.9837574  32.6253288  19.4843548
  35.3386961  32.8524761  20.3438014  35.6309705  32.9571665  18.8620803
  40.7135311  35.7471724  10.1892877  40.5753209  35.9373320   9.2614066
  40.3571530  36.5091106  10.6460928  40.7404690  37.8148251  15.2004148
  41.1741197  37.7223540  16.0487203  41.4536271  37.7905751  14.5624164
  29.6537741  39.0332249  12.3824881  30.4478339  38.5382569  12.1807456
  28.9429433  38.5050112  12.0192587  34.4732585  41.4150345  16.7337249
  34.5269607  41.9841281  17.5014965  33.6047367  41.5852230  16.3691286
  25.9620504  33.1775331   8.4584634  25.0318092  33.1159786   8.6754596
  26.0577976  32.6551284   7.6621275  25.8806053  29.7030144  11.0462876
  26.1412871  30.6175477  10.9372036  26.7023226  29.2354586  11.1959489
  41.6020240  37.8571951  17.7337034  41.7956130  38.7617762  17.9796309
  41.5020858  37.3979370  18.5675619  36.6635349  38.0078694  23.3077914
  36.5120855  37.7789246  22.3907998  36.6540028  38.9649295  23.3209260
  33.4320685  35.5810607  18.2924181  34.3612745  35.7321766  18.1193148
  33.0111715  35.6694628  17.4372827  32.2309017  39.6061271  16.0622719
  32.0920102  39.2380056  16.9348657  31.4423613  40.1208911  15.8906676
  32.8257169  44.7070368   7.4048255  33.0008924  44.2358411   8.2193878
  32.1389957  45.3336134   7.6329516  33.7814232  38.9842874  13.4511556
  33.4464064  38.9443644  14.3469206  33.2818178  38.3187590  12.9781967
  27.7558476  34.3910504  18.9764138  27.6178274  33.6590743  19.5775677
  28.6663399  34.3019404  18.6948325  30.3840777  34.1030463  18.4647817
  31.0940395  33.4623655  18.4234436  30.3410085  34.3543358  19.3873998
  38.3727555  41.0397817  21.3854396  38.3140101  40.3557037  20.7184979
  38.7747074  41.7816807  20.9335022  27.3918254  47.8559730  14.1788115
  27.6314852  48.4878255  14.8567134  26.5487450  47.5047770  14.4653475
  28.5071969  30.5484333   2.8469920  27.6301436  30.4273133   2.4832167
  28.9829723  29.7570411   2.5948809  38.3744962  39.0037401  19.6168376
  37.4871741  38.6663322  19.7394775  38.9443514  38.2720432  19.8537141
  20.0274110  35.3361492  12.9411427  20.7145149  35.0223222  12.3532443
  19.8722238  36.2402857  12.6678679  31.9046116  43.6638853  16.5829619
  31.8316287  44.4693824  17.0948924  31.4623509  43.8630819  15.7577641
  31.6935895  42.9010623  10.0932441  30.9103417  43.4432303  10.1870665
  32.3928641  43.4184603  10.4926682  35.0032546  28.7105252  12.7366646
  35.5001245  27.9575215  12.4167716  34.2319527  28.7469569  12.1709855
  42.8562303  34.4145618  14.3784938  42.8452179  35.2970333  14.0078871
  41.9879682  34.0617169  14.1839475  34.3644799  43.5625687  18.7387778
  35.0772772  44.1973152  18.6663679  33.8734828  43.6589553  17.9227780
  36.0862326  37.4676940  10.3105070  35.1518605  37.5878402  10.1409774
  36.2638995  36.5649406  10.0465079  31.5867514  30.8522635  12.4638331
  31.2165302  30.2993676  13.1519236  32.0826607  30.2480769  11.9113331
  39.4734878  33.3094259  10.8455104  39.9395330  34.1422250  10.7715406
  39.9242378  32.8439240  11.5500362  29.4156713  41.3120130  19.5593349
  30.1166172  41.9456613  19.7122743  28.9451828  41.6534862  18.7988988
  37.5411109  39.6538080   7.8441256  37.8170953  39.5394675   8.7535130
  36.6715607  39.2555565   7.8053429  37.4451540  25.6774846  14.8846005
  36.5314620  25.9079073  15.0528212  37.8744642  25.7613290  15.7360037
  37.2157999  33.8664738  17.3845899  36.5629449  34.1140645  16.7298352
  37.5938379  33.0528876  17.0508376  34.1765173  43.9024431  11.4874069
  34.3587567  43.0846087  11.9501822  34.9998159  44.1192123  11.0498959
  34.5107338  42.8292616   8.7489118  35.0395105  42.3185071   8.1359280
  34.7735558  42.5135146   9.6134651  33.2645572  34.6084549  23.8711936
  32.5886209  34.5078678  24.5414311  34.0873206  34.4523763  24.3347933
  25.0124431  40.8456485  16.4924451  25.5977868  40.1000173  16.6252356
  24.8149269  41.1560442  17.3761115  27.8663086  43.8807733  11.5086894
  27.1973461  44.3653860  11.0250934  27.7275956  44.1276953  12.4230272
  19.6042086  33.4162086  15.2128895  19.6426185  32.8825676  16.0066013
  19.0982379  32.8897291  14.5939872  32.0068355  45.9151476  18.1069552
  32.5586663  46.0783098  18.8718637  32.3474548  46.5055914  17.4349577
  36.8579229  40.7412734  23.9618207  37.4019133  41.3542692  23.4673161
  36.2766074  41.2992312  24.4785220  23.2350663  32.1426188   8.2882826
  23.5304104  31.2336866   8.2349880  22.3338699  32.1213927   7.9663828
  35.1436742  43.8633452  15.0933234  35.0187882  43.0623192  14.5844180
  35.8015833  44.3579645  14.6047204  26.7644910  30.2182184  14.2710375
  26.0431496  30.8318152  14.1317848  27.5538166  30.7539949  14.1927020
  37.2071650  41.6642472  16.7212784  36.2601986  41.5447823  16.6491111
  37.5554424  40.7764970  16.8039046  24.9638505  29.8240285   8.4122151
  24.6351211  28.9437664   8.2297257  25.3177876  29.7687954   9.2998540
  34.2118084  41.4595188  12.9217137  34.0643046  40.5311896  13.1024707
  35.0371577  41.4815279  12.4374212  28.0780328  30.1113255   8.7797629
  28.4176401  30.6399176   8.0576237  28.5252448  30.4493661   9.5556195
  37.8152206  42.2823747  14.0082009  38.7398753  42.0766608  13.8706461
  37.6467509  42.0340148  14.9171351  30.0648475  28.6087877   6.9790922
  30.7856838  28.9869130   6.4754638  29.4413779  29.3276754   7.0825899
  34.2079598  29.3133026   7.9149254  34.4243212  30.1957664   7.6138082
  33.7273665  28.9219239   7.1854896  28.9478819  32.2718739  14.4919998
  28.8023400  32.5859042  15.3844280  28.4704023  32.8903639  13.9390897
  37.6047522  42.8009414   9.3644101  37.7784399  42.2355837   8.6117953
  38.0976413  43.6010309   9.1823591  23.4224482  34.8124083  17.4307660
  22.8777950  35.5883891  17.5627934  24.3003831  35.1594888  17.2726781
  30.2112098  28.1435667   9.8088458  30.3328009  27.2152313  10.0079346
  29.9214141  28.1574353   8.8966774  33.0803289  25.8290578  12.9455178
  33.1024985  25.8929911  11.9907158  33.4971348  24.9895086  13.1395684
  43.4586913  35.5645837  10.9834401  43.9018059  34.8153162  10.5853524
  42.5813423  35.5555974  10.6008133  24.2090503  33.9393980  20.3237816
  23.4672239  34.0876615  20.9102447  23.8883248  34.2002245  19.4604566
  40.4914117  39.5675884   7.9928330  41.0165441  39.9063157   7.2677650
  40.4036470  38.6322900   7.8091464  32.1534166  43.4809958  20.1218207
  32.4621293  43.2359105  20.9940906  32.9509648  43.6856596  19.6337077
  32.1754778  45.6347868  12.3523583  31.7359768  45.1424246  13.0456440
  32.9262895  45.0920835  12.1115658  24.6547117  41.8259408  12.3548211
  25.4805137  41.5263180  11.9746855  24.3041169  41.0567031  12.8038000
  29.6228650  41.1785877  14.4245885  29.0008660  40.5156582  14.1248113
  30.2933517  41.2047009  13.7419533  22.8555722  39.7445735  13.3137145
  22.0187630  39.3167909  13.1321146  22.8279368  39.9378178  14.2507936
  40.1808023  40.2008788  23.2979528  39.3903567  40.1832927  22.7584027
  39.9441378  40.7397082  24.0528564  40.3005899  37.0501254  20.6112256
  40.3503903  36.8851262  21.5527779  40.1919822  36.1828513  20.2210137
  29.1842157  39.7289800   7.9004345  29.3330278  40.4125264   7.2471018
  29.9908601  39.7094890   8.4153801  37.5909661  33.0332182  21.9271563
  38.4919524  32.8938647  21.6355561  37.6657635  33.1986637  22.8669741
  41.8024095  39.4698196  20.8554278  41.5108904  39.8328176  21.6917739
  41.1896227  38.7565204  20.6767610  43.0019778  37.0351076  13.3756848
  43.8366669  37.4740880  13.5394408  43.1378906  36.5589729  12.5565094
  40.0511284  34.5930810  19.3234336  40.5265405  34.7858457  18.5153187
  39.1276849  34.6489996  19.0777720  26.9394790  35.7554978   8.9065414
  26.6940832  34.8517308   9.1045624  27.1090705  35.7572128   7.9644892
  26.2090438  31.4883335   6.4051576  25.5159683  31.5627690   5.7491612
  25.9642190  30.7243679   6.9273093  34.8804094  23.0478937  13.8091066
  35.1605848  22.3802126  14.4351493  35.6654701  23.2408032  13.2965730
  38.7512953  31.4696571  17.5562642  39.7030375  31.5694668  17.5774866
  38.5816403  30.6774839  18.0660726  41.2301030  34.6902690  16.6704941
  41.1977350  33.7518691  16.8564625  41.8401654  34.7686727  15.9370766
  33.0684361  33.5598743   2.7132145  34.0143466  33.4304951   2.7820563
  32.6898606  32.8213405   3.1901573  41.3795519  31.4813734  16.7163224
  40.8634567  30.6972190  16.5293153  42.2635467  31.1532450  16.8809744
  39.0406246  25.2254749  12.6759037  38.8431067  24.9169837  13.5602369
  39.6505951  25.9516388  12.8056967  47.0477580  35.7518697  15.8110978
  47.7780969  35.4903985  16.3718681  46.4384526  35.0147419  15.8513046
  45.1292877  33.8926560  16.4085429  44.4026041  33.7582525  15.8001921
  44.7140164  34.2003388  17.2142147  32.9523054  37.6116489  24.1732802
  33.8726063  37.7895088  24.3672849  32.9172637  36.6672535  24.0212501
  31.2527278  31.4848720   2.6487030  30.3458734  31.1881832   2.7249744
  31.5303259  31.1878538   1.7821317  22.1705219  32.8055083  13.0986077
  21.8508003  31.9520391  12.8060451  21.6238647  33.0203661  13.8544044
  25.9485126  35.5217524  16.8155583  26.1671136  36.4534632  16.8343617
  26.3610900  35.1625498  17.6010387  32.8689344  26.0285609   8.8031272
  32.0590072  25.6832694   9.1786518  33.5573761  25.7193153   9.3918883
  34.7979892  25.1063656  10.4255568  35.3510931  25.5259110  11.0845591
  35.0349979  24.1799404  10.4678524  30.0226063  28.3435655   2.7899010
  30.8845227  28.6690553   3.0494827  30.2076407  27.5567151   2.2772075
  22.0393479  36.4257994  15.0679198  21.3456950  36.0111947  14.5549153
  22.7866470  36.4678531  14.4712617  38.1758699  27.2164181   9.9334233
  37.5957369  27.8748985   9.5512285  37.9094632  26.3941526   9.5221650
  36.6262266  26.6169239  12.1355553  37.1262044  26.7285773  11.3269872
  37.2697874  26.3130292  12.7756361  30.6844262  34.5247869  25.0223394
  30.2011343  35.3248229  25.2287283  30.7705201  34.5355813  24.0690838
  23.9530221  36.3576248  12.9445213  23.9300909  36.4563936  11.9927096
  24.2630858  37.2041399  13.2662379  26.6117599  38.4152403  17.0591828
  27.5660853  38.3836346  16.9921759  26.4130123  37.9543027  17.8742054
  27.2016981  36.9853519  19.6262625  28.0209870  37.4797598  19.6497463
  27.4753789  36.0685487  19.5980193  36.9583578  29.3764272   8.9890581
  36.0709433  29.6613922   8.7710776  37.3737567  29.2158035   8.1417858
  40.3098114  29.4010793  12.7044920  41.0858504  29.8907245  12.9769537
  39.5846248  29.8268847  13.1616790  42.7470672  30.1138412  13.7618861
  43.3415163  29.8734148  13.0512169  42.8197256  29.3945542  14.3892397
  24.9667828  43.9572023  14.0762026  24.8322296  43.1972424  13.5100024
  24.5499890  44.6812923  13.6090814  36.9324601  34.8918808   9.2040871
  36.8759803  35.3487359   8.3648503  37.4852944  34.1309492   9.0263714
  40.7429407  30.6808539  10.0290991  40.4866341  30.2805175  10.8599198
  40.1182275  31.3952333   9.9041130  45.0541745  33.4204613  12.5362282
  44.4941303  33.4897802  13.3093844  44.4485248  33.2445597  11.8161778
  28.1236954  44.8541340  14.2880468  28.0069338  45.7986772  14.1859158
  27.3029400  44.5514901  14.6766267  37.6659381  36.0823589   6.4993400
  37.6108184  35.9167860   5.5581844  37.0405436  36.7899622   6.6555590
  22.4551896  31.3191653  20.3254822  23.1010759  30.8090607  20.8142048
  22.2469047  32.0560335  20.8998248  34.9805288  38.3872501  25.8246963
  35.8496447  38.5613153  25.4633598  34.5012039  39.2066917  25.7022692
  30.9755506  25.5831698   6.0778719  30.9634176  26.5273538   6.2346989
  31.8678928  25.4001843   5.7838180  29.1491468  45.5069602  17.5036397
  30.0518715  45.5393212  17.8202892  28.9228838  44.5770053  17.5182732
  30.9045070  44.2600588  14.1646475  29.9540701  44.2602450  14.0510848
  31.2077556  43.5133323  13.6482510  34.7907625  22.1774474  10.3324655
  34.0240021  21.6232961  10.4781338  35.2018330  22.2496343  11.1938807
  43.4487470  50.0488555  15.1653762  43.1105981  49.9329619  14.2774297
  44.3177238  49.6479720  15.1454768  43.9307253  51.2023406  21.1239968
  43.9195894  50.8076205  20.2520472  44.0927892  50.4689479  21.7173739
  36.8538717  53.3975223  13.9934874  37.6460009  53.0566047  13.5781173
  37.0935368  53.5070198  14.9137027  40.6514514  53.9860518  20.0719152
  40.3604380  54.8906149  19.9565818  41.2871498  54.0277046  20.7863221
  41.5770721  51.3637367  16.6620512  42.1734293  51.1393389  15.9477474
  41.6345692  50.6222112  17.2645959  49.1172879  41.4709388  17.6673033
  48.7856204  42.3404799  17.4434248  48.5218493  41.1545672  18.3467063
  39.0616880  50.1235731  13.1005650  38.1367377  49.9911945  13.3083342
  39.3101294  50.9029950  13.5975592  49.0101543  46.1904474  14.7466383
  48.1018420  46.1219882  14.4525144  48.9589139  46.6676419  15.5748208
  36.4225691  49.7669004  13.9349439  36.5518073  50.0203483  14.8488851
  35.7423143  50.3596712  13.6154094  43.0842409  47.6094120  22.6901280
  42.3075743  48.1688040  22.6804145  43.7232972  48.0950903  23.2116150
  50.8763189  44.3920912  16.5244257  50.2337569  44.6853445  15.8784051
  50.3718118  44.2773833  17.3297453  41.3388781  50.4179573  22.2519247
  42.0803465  50.9564617  21.9754071  40.6325766  51.0445862  22.4090799
  43.1675191  47.4981320  18.2224966  44.0136386  47.9220734  18.3659615
  43.1073828  46.8414944  18.9163529  46.3174636  45.1585688  19.8806139
  46.0735568  45.9127749  19.3440415  46.5934566  45.5371036  20.7153386
  45.8739328  44.3142121  15.4619977  45.0123807  44.6123375  15.7536715
  45.9001762  44.5312520  14.5301010  40.0750145  47.5719221  23.0534557
  39.4448805  48.2535502  23.2869954  39.9686232  47.4602303  22.1087695
  35.3695117  47.2391017  13.9800481  34.5794171  47.4948546  13.5040592
  35.8606364  48.0539355  14.0852522  33.6532820  47.4921508  16.4115472
  33.9040858  48.3768517  16.6773048  34.1892368  47.3126109  15.6390564
  39.3530887  41.8739987  25.4159808  38.9597833  41.3206185  26.0907452
  40.1697028  42.1850565  25.8066326  42.2698848  43.2897866  23.0080065
  43.0108562  43.8905019  22.9284527  42.5016771  42.5475504  22.4498107
  37.4140186  48.4754233  21.2858294  37.2993701  47.5739490  21.5865393
  36.5584704  48.7217930  20.9343111  46.2156011  39.3178969  17.2844346
  45.8720281  40.2080611  17.2083457  46.5834974  39.1280627  16.4213931
  45.2952552  41.6883624  15.2493580  44.7917347  41.6513759  14.4361385
  45.5883158  42.5976367  15.3090236  41.5395438  41.7722354  14.2559761
  42.4048434  41.5765162  13.8965651  41.6072946  41.5432706  15.1829118
  39.1457757  44.0024562  11.6276128  39.7201508  43.7799743  10.8949321
  39.7328739  44.0713256  12.3804730  41.4480424  40.8765811  10.3551198
  40.7944837  40.5614828   9.7307812  41.4060898  40.2541551  11.0811021
  44.6818165  47.3647744  14.6798845  43.7640726  47.5862691  14.5220533
  45.0978308  47.4394055  13.8210553  48.0143677  38.5772528  12.3862084
  48.3202554  37.7169892  12.0987999  48.7396282  39.1690148  12.1861078
  34.3068033  48.9803215  10.7743682  34.1092433  48.3872575  10.0494749
  33.7514697  48.6755425  11.4919621  42.2864757  48.8726321  12.8938275
  42.3413366  47.9200158  12.8180752  41.4755959  49.0285760  13.3779574
  45.8231328  47.9545205  19.4843548  46.1780716  48.1816679  20.3438014
  46.4703459  48.2863582  18.8620803  39.7171191  45.0621736  16.2689889
  40.3570571  44.9210496  15.5712852  38.8848722  44.7756250  15.8928491
  36.7199808  45.0322061  11.0462876  36.9806625  45.9467395  10.9372036
  37.5416980  44.5646504  11.1959489  38.1924733  46.4459819  18.2161700
  38.8647786  46.2377181  17.5674349  37.3654520  46.2481905  17.7766933
  44.0950305  43.0721760  20.2327361  43.4478220  43.7711709  20.1391838
  44.8651320  43.5057903  20.6003609  44.2714439  50.9102524  18.2924181
  45.2006499  51.0613684  18.1193148  43.8505469  50.9986545  17.4372827
  38.5952230  49.7202422  18.9764138  38.4572028  48.9882660  19.5775677
  39.5057154  49.6311322  18.6948325  41.2234531  49.4322381  18.4647817
  41.9334150  48.7915573  18.4234436  41.1803839  49.6835276  19.3873998
  39.9363465  46.4187599  20.2843457  39.4000822  45.9678337  20.9365053
  39.3480173  46.5533508  19.5413921  30.8667864  50.6653410  12.9411427
  31.5538904  50.3515140  12.3532443  30.7115993  51.5694775  12.6678679
  35.6702586  45.5543606  17.3696451  35.5860775  44.9469276  16.6346861
  34.8485293  46.0452625  17.3705947  45.8426300  44.0397170  12.7366646
  46.3395000  43.2867132  12.4167716  45.0713282  44.0761487  12.1709855
  42.4261269  46.1814553  12.4638331  42.0559056  45.6285593  13.1519236
  42.9220361  45.5772686  11.9113331  48.2845295  41.0066764  14.8846005
  47.3708375  41.2370990  15.0528212  48.7138396  41.0905208  15.7360037
  48.0551753  49.1956655  17.3845899  47.4023204  49.4432563  16.7298352
  48.4332133  48.3820794  17.0508376  44.1039326  49.9376467  23.8711936
  43.4279963  49.8370596  24.5414311  44.9266960  49.7815680  24.3347933
  35.8518185  56.1748403  16.4924451  36.4371622  55.4292091  16.6252356
  35.6543024  56.4852360  17.3761115  30.4435840  48.7454003  15.2128895
  30.4819940  48.2117594  16.0066013  29.9376133  48.2189209  14.5939872
  37.8226602  43.5918544  18.7091437  37.8867929  44.4533375  18.2968835
  37.7593723  42.9792545  17.9763795  37.2978875  45.6641676  22.3564471
  37.9250914  45.2818754  22.9701995  36.4406794  45.4455878  22.7220164
  37.6038665  45.5474102  14.2710375  36.8825251  46.1610070  14.1317848
  38.3931921  46.0831867  14.1927020  40.4064978  42.8828529  20.5451026
  40.9299380  43.1290825  21.3077336  40.1877312  43.7148563  20.1254164
  35.8032259  45.1532203   8.4122151  35.4744966  44.2729582   8.2297257
  36.1571630  45.0979872   9.2998540  41.6117523  43.8242224  18.2300697
  41.2714344  43.0250037  18.6321377  40.9056530  44.1243934  17.6577530
  42.2633995  40.9091536  16.6828020  43.0860064  40.4352014  16.5606910
  42.5072059  41.6882020  17.1826706  39.7872574  47.6010657  14.4919998
  39.6417155  47.9150960  15.3844280  39.3097778  48.2195557  13.9390897
  41.6468957  44.5913205  14.5400888  41.6330526  43.6954298  14.2033186
  42.3641385  44.5983868  15.1739174  43.4995088  45.0250545  16.5854015
  43.2412865  45.9467616  16.5838346  42.9680128  44.6280979  17.2754480
  34.2618236  50.1416001  17.4307660  33.7171704  50.9175809  17.5627934
  35.1397586  50.4886806  17.2726781  43.9197043  41.1582495  12.9455178
  43.9418740  41.2221828  11.9907158  44.3365102  40.3187004  13.1395684
  35.0484258  49.2685897  20.3237816  34.3065994  49.4168533  20.9102447
  34.7277002  49.5294163  19.4604566  33.6949477  55.0737653  13.3137145
  32.8581385  54.6459827  13.1321146  33.6673122  55.2670096  14.2507936
  40.5346932  44.9859582  24.0178391  40.5835088  45.8621705  23.6356160
  41.0769446  44.4436975  23.4450034  48.4303415  48.3624100  21.9271563
  49.3313278  48.2230565  21.6355561  48.5051390  48.5278555  22.8669741
  42.7646221  45.7390955  20.7724749  41.8949530  46.0324521  20.5007338
  43.0005701  46.3231400  21.4932013  45.4685255  41.9570572  18.2890170
  45.9867198  42.6931599  17.9636658  45.1140387  42.2634565  19.1236929
  45.7197849  38.3770854  13.8091066  45.9999602  37.7094043  14.4351493
  46.5048456  38.5699950  13.2965730  49.5906707  46.7988488  17.5562642
  50.5424130  46.8986586  17.5774866  49.4210157  46.0066757  18.0660726
  47.6121087  43.8844071  17.7422042  47.0171019  44.1649084  17.0468531
  47.3270783  44.3737972  18.5138784  52.2189273  46.8105651  16.7163224
  51.7028322  46.0264108  16.5293153  53.1029222  46.4824368  16.8809744
  49.8800000  40.5546667  12.6759037  49.6824821  40.2461755  13.5602369
  50.4899706  41.2808306  12.8056967  33.0098973  48.1347001  13.0986077
  32.6901758  47.2812309  12.8060451  32.4632401  48.3495579  13.8544044
  36.7878881  50.8509442  16.8155583  37.0064891  51.7826549  16.8343617
  37.2004655  50.4917416  17.6010387  45.6373647  40.4355574  10.4255568
  46.1904685  40.8551027  11.0845591  45.8743733  39.5091322  10.4678524
  41.6606746  46.4242647  26.2058332  41.5603473  47.3737004  26.1370423
  41.4428288  46.0960886  25.3334402  32.8787233  51.7549912  15.0679198
  32.1850705  51.3403865  14.5549153  33.6260224  51.7970449  14.4712617
  47.4656020  41.9461157  12.1355553  47.9655799  42.0577691  11.3269872
  48.1091628  41.6422209  12.7756361  41.5238016  49.8539786  25.0223394
  41.0405098  50.6540146  25.2287283  41.6098955  49.8647731  24.0690838
  34.7923976  51.6868166  12.9445213  34.7694664  51.7855853  11.9927096
  35.1024612  52.5333317  13.2662379  37.4511354  53.7444321  17.0591828
  38.4054607  53.7128263  16.9921759  37.2523877  53.2834945  17.8742054
  38.0410736  52.3145437  19.6262625  38.8603625  52.8089516  19.6497463
  38.3147543  51.3977405  19.5980193  33.2945650  46.6483571  20.3254822
  33.9404514  46.1382525  20.8142048  33.0862801  47.3852252  20.8998248
  45.6301380  37.5066392  10.3324655  44.8633776  36.9524879  10.4781338
  46.0412085  37.5788261  11.1938807  37.6343141  43.7951188  24.4229837
  38.4974603  43.4387993  24.6333161  37.0608552  43.4565083  25.1105241
  26.0185476   2.4182939  10.6863513  26.5625380   3.0312897  10.1918468
  25.4372321   2.9762517  11.2030526  29.3414270   1.8778993  10.0224834
  28.5509814   1.8603132   9.4829334  29.1047625   2.4167287  10.7773871
  24.1411535   0.0642706  12.5492270  25.0102694   0.2383358  12.1878905
  23.6618286   0.8837122  12.4267999  35.8004010  11.7731332   1.9537544
  36.4382420  11.6538079   1.2500884  35.6824853  12.7212175   2.0125496
  33.0913500  12.8793611   7.8485275  33.0802140  12.4846410   6.9765778
  33.2534139  12.1459684   8.4419046  29.8120761  15.6630723   6.7964458
  29.5210627  16.5676354   6.6811125  30.4477745  15.7047251   7.5108528
  30.7376968  13.0407572   3.3865818  31.3340540  12.8163594   2.6722781
  30.7951939  12.2992317   3.9891266  34.7710646  15.3492139   3.7914252
  34.4711369  16.2517177   3.6830059  34.4261705  15.0824322   4.6435405
  29.7531426  22.1136459  -3.2414780  29.6755455  23.0644284  -3.1626300
  29.1493069  21.7682332  -2.5839854  32.2448655   9.2864324   9.4146587
  31.4681989   9.8458245   9.4049451  32.8839218   9.7721107   9.9361457
  30.4995028  12.0949778   8.9764554  31.2409712  12.6334822   8.6999377
  29.7932013  12.7216067   9.1336106  35.9750367  14.2378918   7.5736715
  36.3833723  13.7961329   6.8291348  35.2527629  13.6631546   7.8270908
  32.3281437   9.1751525   4.9470272  33.1742632   9.5990939   5.0904921
  32.2680075   8.5185149   5.6408835  36.2979182  14.7980109   1.3289004
  35.6688044  14.9625823   0.6265072  35.9104844  15.2121718   2.0999968
  35.4780883   6.8355893   6.6051446  35.2341815   7.5897954   6.0685722
  35.7540813   7.2141241   7.4398693  37.4319345  13.3794506   5.2828711
  37.6436241  14.0226266   4.6063093  37.3849094  12.5456822   4.8150642
  28.7431225  14.0825999   1.5318852  29.3132582  14.5113267   0.8936337
  29.3339337  13.8008583   2.2303038  29.2356391   9.2489426   9.7779864
  28.6055052   9.9305707  10.0115261  29.1292479   9.1372508   8.8333002
  38.5465173  16.2566461   3.4551069  39.3682617  15.8546648   3.1733750
  38.5427576  16.1534695   4.4067185  32.3121777  15.8050504   5.6111779
  32.3766209  16.2670912   6.4469951  31.6032701  15.1747869   5.7394089
  28.5137134   3.5510192  12.1405115  28.1204080   2.9976390  12.8152759
  29.3303274   3.8620770  12.5311632  31.4305095   4.9668071   9.7325371
  32.1714808   5.5675224   9.6529834  31.6623018   4.2245709   9.1743414
  26.5746433  10.1524438   8.0103601  26.4599948   9.2509695   8.3110700
  25.7190951  10.3988135   7.6588418  33.6538271  18.0942178   9.6091102
  33.2102125  17.3078557   9.2912006  34.3155484  18.2821329   8.9434992
  28.4125392  19.6237980   4.1351780  28.9632817  19.4955043   3.3628774
  27.5736868  19.9232869   3.7846673  35.7519509  18.3744978   7.6372503
  35.7337984  19.1953859   7.1452772  36.6739429  18.2499054   7.8622644
  32.2092563  15.8889108   8.4796011  32.7420900  15.1277396   8.2495319
  31.6806644  15.5962760   9.2220166  38.5538122  13.2124121   1.1081870
  37.8961796  13.9023382   1.1961998  39.3578521  13.6020553   1.4515856
  36.5738316  18.3850992  -1.7785228  36.8661290  18.9456049  -2.4972862
  37.0836937  18.6779553  -1.0232069  31.5371941  19.1631343  -0.6891775
  31.4948120  19.3892189  -1.6183243  32.4534640  18.9294717  -0.5405973
  34.9837575   9.6315410   6.2088855  35.3386963   9.8586883   7.0683320
  35.6309706   9.9633787   5.5866110  34.4732586  18.4212467   3.4582556
  34.5269609  18.9903404   4.2260272  33.6047368  18.5914352   3.0936593
  41.6020241  14.8634074   4.4582341  41.7956131  15.7679884   4.7041615
  41.5020859  14.4041493   5.2920926  33.2556552   4.7491964   6.9572668
  32.6084467   5.4481914   6.8637144  34.0257567   5.1828108   7.3248916
  36.6635350  15.0140817  10.0323221  36.5120856  14.7851368   9.1153305
  36.6540029  15.9711418  10.0454566  33.4320686  12.5872729   5.0169488
  34.3612746  12.7383889   4.8438455  33.0111716  12.6756750   4.1618134
  32.2309018  16.6123394   2.7868025  32.0920104  16.2442178   3.6593963
  31.4423614  17.1271033   2.6151983  33.7814233  15.9904996   0.1756863
  33.4464066  15.9505766   1.0714513  33.2818179  15.3249712  -0.2972727
  27.7558477  11.3972627   5.7009444  27.6178275  10.6652865   6.3020983
  28.6663401  11.3081527   5.4193632  30.3840778  11.1092586   5.1893124
  31.0940396  10.4685778   5.1479742  30.3410086  11.3605481   6.1119305
  38.3727556  18.0459939   8.1099703  38.3140103  17.3619159   7.4430286
  38.7747075  18.7878929   7.6580329  29.0969712   8.0957804   7.0088763
  28.5607069   7.6448542   7.6610360  28.5086420   8.2303713   6.2659228
  27.3918255  24.8621853   0.9033422  27.6314853  25.4940377   1.5812440
  26.5487452  24.5109893   1.1898781  38.3744964  16.0099523   6.3413683
  37.4871742  15.6725445   6.4640082  38.9443515  15.2782554   6.5782448
  31.9046117  20.6700975   3.3074926  31.8316289  21.4755947   3.8194230
  31.4623510  20.8692941   2.4822947  31.6935897  19.9072745  -3.1822253
  30.9103419  20.4494426  -3.0884028  32.3928642  20.4246725  -2.7828011
  34.3644801  20.5687809   5.4633085  35.0772773  21.2035274   5.3908986
  33.8734829  20.6651675   4.6473086  29.4156714  18.3182253   6.2838655
  30.1166174  18.9518736   6.4368050  28.9451829  18.6596984   5.5234295
  37.2158000  10.8726860   4.1091206  36.5629450  11.1202768   3.4543658
  37.5938380  10.0590999   3.7753683  34.1765174  20.9086554  -1.7880624
  34.3587569  20.0908210  -1.3252872  34.9998160  21.1254246  -2.2255734
  33.2645573  11.6146671  10.5957243  32.5886210  11.5140801  11.2659618
  34.0873207  11.4585885  11.0593240  25.0124432  17.8518608   3.2169758
  25.5977869  17.1062296   3.3497662  24.8149271  18.1622565   4.1006422
  27.8663087  20.8869855  -1.7667800  27.1973463  21.3715983  -2.2503760
  27.7275957  21.1339076  -0.8524421  32.0068356  22.9213599   4.8314859
  32.5586664  23.0845220   5.5963944  32.3474549  23.5118037   4.1594884
  26.4585122   7.3411881   9.0809778  27.0857161   6.9588959   9.6947302
  25.6013041   7.1226083   9.4465470  36.8579230  17.7474856  10.6863513
  37.4019134  18.3604815  10.1918468  36.2766075  18.3054435  11.2030526
  35.1436743  20.8695574   1.8178541  35.0187883  20.0685314   1.3089486
  35.8015834  21.3641768   1.3292511  37.2071652  18.6704595   3.4458091
  36.2601987  18.5509946   3.3736418  37.5554425  17.7827093   3.5284352
  29.5671225   4.5598733   7.2696333  30.0905627   4.8061030   8.0322642
  29.3483558   5.3918768   6.8499470  34.2118085  18.4657311  -0.3537557
  34.0643047  17.5374018  -0.1729987  35.0371578  18.4877401  -0.8380482
  37.8152207  19.2885869   0.7327316  38.7398754  19.0828731   0.5951767
  37.6467510  19.0402271   1.6416657  24.2090505  10.9456102   7.0483123
  23.4672241  11.0938738   7.6347754  23.8883249  11.2064368   6.1849873
  32.1534167  20.4872081   6.8463513  32.4621294  20.2421227   7.7186213
  32.9509649  20.6918719   6.3582383  32.1754779  22.6409990  -0.9231110
  31.7359770  22.1486369  -0.2298254  32.9262896  22.0982958  -1.1639035
  29.6228652  18.1847999   1.1491191  29.0008661  17.5218704   0.8493419
  30.2933518  18.2109131   0.4664839  29.6953179   6.6629787  10.7423697
  29.7441335   7.5391910  10.3601467  30.2375693   6.1207180  10.1695341
  40.1808025  17.2070911  10.0224834  39.3903568  17.1895049   9.4829334
  39.9441379  17.7459204  10.7773871  40.3005900  14.0563377   7.3357563
  40.3503905  13.8913384   8.2773086  40.1919823  13.1890636   6.9455444
  37.5909662  10.0394305   8.6516870  38.4919525   9.9000770   8.3600868
  37.6657637  10.2048760   9.5915047  31.9252467   7.4161160   7.4970056
  31.0555777   7.7094726   7.2252645  32.1611948   8.0001605   8.2177320
  41.8024097  16.4760318   7.5799585  41.5108905  16.8390299   8.4163046
  41.1896228  15.7627327   7.4012917  40.0511285  11.5992933   6.0479643
  40.5265406  11.7920579   5.2398494  39.1276850  11.6552119   5.8023026
  34.6291501   3.6340777   5.0135476  35.1473445   4.3701804   4.6881965
  34.2746634   3.9404770   5.8482236  38.7512954   8.4758693   4.2807948
  39.7030377   8.5756791   4.3020172  38.5816404   7.6836962   4.7906033
  36.7727333   5.5614276   4.4667349  36.1777265   5.8419289   3.7713838
  36.4877030   6.0508177   5.2384090  32.9523055  14.6178612  10.8978109
  33.8726064  14.7957211  11.0918155  32.9172638  13.6734657  10.7457808
  25.9485128  12.5279647   3.5400890  26.1671137  13.4596754   3.5588924
  26.3610901  12.1687621   4.3255694  30.8212993   8.1012852  12.9303639
  30.7209720   9.0507209  12.8615730  30.6034535   7.7731091  12.0579709
  30.6844263  11.5309991  11.7468701  30.2011345  12.3310351  11.9532590
  30.7705202  11.5417936  10.7936145  26.6117600  15.4214526   3.7837134
  27.5660854  15.3898468   3.7167066  26.4130124  14.9605150   4.5987360
  27.2016983  13.9915642   6.3507932  28.0209872  14.4859721   6.3742769
  27.4753790  13.0747610   6.3225500  24.9667829  20.9634145   0.8007332
  24.8322297  20.2034546   0.2345330  24.5499891  21.6875045   0.3336121
  28.1236955  21.8603462   1.0125775  28.0069339  22.8048895   0.9104465
  27.3029401  21.5577024   1.4011574  34.9805289  15.3934623  12.5492270
  35.8496449  15.5675276  12.1878905  34.5012040  16.2129040  12.4267999
  29.1491469  22.5131724   4.2281703  30.0518716  22.5455335   4.5448198
  28.9228839  21.5832175   4.2428039  30.9045071  21.2662711   0.8891782
  29.9540702  21.2664572   0.7756154  31.2077557  20.5195445   0.3727817
  26.7949388   5.4721393  11.1475143  27.6580849   5.1158198  11.3578468
  26.2214798   5.1335288  11.8350548  43.4487471  27.0550677   1.8899069
  43.1105983  26.9391742   1.0019604  44.3177239  26.6541842   1.8700075
  43.9307254  28.2085529   7.8485275  43.9195895  27.8138327   6.9765778
  44.0927893  27.4751602   8.4419046  36.8538719  30.4037345   0.7180180
  37.6460011  30.0628170   0.3026480  37.0935369  30.5132320   1.6382334
  40.6514515  30.9922641   6.7964458  40.3604381  31.8968272   6.6811125
  41.2871499  31.0339168   7.5108528  41.5770722  28.3699489   3.3865818
  42.1734294  28.1455512   2.6722781  41.6345694  27.6284235   3.9891266
  39.0616882  27.1297853  -0.1749043  38.1367378  26.9974067   0.0328648
  39.3101295  27.9092072   0.3220899  36.4225693  26.7731127   0.6594746
  36.5518074  27.0265606   1.5734157  35.7423144  27.3658835   0.3399401
  43.0842410  24.6156242   9.4146587  42.3075744  25.1750162   9.4049451
  43.7232973  25.1013025   9.9361457  41.3388782  27.4241695   8.9764554
  42.0803466  27.9626739   8.6999377  40.6325768  28.0507984   9.1336106
  46.8144122  29.5670836   7.5736715  47.2227478  29.1253246   6.8291348
  46.0921383  28.9923463   7.8270908  43.1675192  24.5043443   4.9470272
  44.0136387  24.9282856   5.0904921  43.1073829  23.8477067   5.6408835
  46.3174637  22.1647811   6.6051446  46.0735569  22.9189872   6.0685722
  46.5934568  22.5433159   7.4398693  48.2713100  28.7086423   5.2828711
  48.4829995  29.3518183   4.6063093  48.2242848  27.8748740   4.8150642
  40.0750146  24.5781344   9.7779864  39.4448806  25.2597625  10.0115261
  39.9686234  24.4664425   8.8333002  35.3695118  24.2453140   0.7045788
  34.5794172  24.5010668   0.2285899  35.8606366  25.0601478   0.8097828
  43.1515531  31.1342422   5.6111779  43.2159964  31.5962829   6.4469951
  42.4426455  30.5039787   5.7394089  33.6532821  24.4983630   3.1360779
  33.9040860  25.3830640   3.4018355  34.1892370  24.3188232   2.3635871
  39.3530889  18.8802110  12.1405115  38.9597834  18.3268308  12.8152759
  40.1697029  19.1912688  12.5311632  42.2698850  20.2959989   9.7325371
  43.0108563  20.8967142   9.6529834  42.5016772  19.5537626   9.1743414
  37.4140188  25.4816356   8.0103601  37.2993703  24.5801613   8.3110700
  36.5584705  25.7280053   7.6588418  44.4932025  33.4234096   9.6091102
  44.0495880  32.6370475   9.2912006  45.1549239  33.6113247   8.9434992
  46.5913263  33.7036896   7.6372503  46.5731739  34.5245777   7.1452772
  47.5133183  33.5790971   7.8622644  43.0486318  31.2181026   8.4796011
  43.5814654  30.4569314   8.2495319  42.5200399  30.9254677   9.2220166
  41.5395439  18.7784476   0.9805068  42.4048436  18.5827285   0.6210958
  41.6072948  18.5494828   1.9074425  39.1457758  21.0086684  -1.6478565
  39.7201510  20.7861866  -2.3805372  39.7328740  21.0775379  -0.8949964
  44.6818166  24.3709867   1.4044152  43.7640727  24.5924814   1.2465840
  45.0978310  24.4456177   0.5455859  34.3068034  25.9865337  -2.5011011
  34.1092434  25.3934698  -3.2259945  33.7514698  25.6817547  -1.7835073
  42.2864758  25.8788444  -0.3816418  42.3413368  24.9262280  -0.4573942
  41.4755960  26.0347883   0.1024880  45.8231330  24.9607328   6.2088855
  46.1780717  25.1878801   7.0683320  46.4703461  25.2925705   5.5866110
  39.7171193  22.0683859   2.9935196  40.3570572  21.9272618   2.2958159
  38.8848723  21.7818372   2.6173798  36.7199809  22.0384184  -2.2291818
  36.9806626  22.9529517  -2.3382657  37.5416981  21.5708627  -2.0795205
  38.1924734  23.4521941   4.9407007  38.8647788  23.2439303   4.2919656
  37.3654521  23.2544027   4.5012239  44.0950306  20.0783882   6.9572668
  43.4478221  20.7773832   6.8637144  44.8651322  20.5120026   7.3248916
  47.5029104  30.3432734  10.0323221  47.3514611  30.1143286   9.1153305
  47.4933784  31.3003336  10.0454566  44.2714441  27.9164647   5.0169488
  45.2006501  28.0675807   4.8438455  43.8505471  28.0048668   4.1618134
  38.5952232  26.7264544   5.7009444  38.4572030  25.9944783   6.3020983
  39.5057155  26.6373444   5.4193632  41.2234532  26.4384504   5.1893124
  41.9334151  25.7977696   5.1479742  41.1803840  26.6897398   6.1119305
  49.2121311  33.3751857   8.1099703  49.1533857  32.6911077   7.4430286
  49.6140829  34.1170847   7.6580329  39.9363466  23.4249721   7.0088763
  39.4000823  22.9740460   7.6610360  39.3480175  23.5595630   6.2659228
  49.2138718  31.3391441   6.3413683  48.3265497  31.0017363   6.4640082
  49.7837269  30.6074472   6.5782448  30.8667865  27.6715533  -0.3343266
  31.5538905  27.3577263  -0.9222251  30.7115994  28.5756897  -0.6076015
  35.6702587  22.5605729   4.0941758  35.5860776  21.9531399   3.3592168
  34.8485294  23.0514747   4.0951254  42.4261270  23.1876676  -0.8116363
  42.0559058  22.6347716  -0.1235457  42.9220363  22.5834809  -1.3641363
  40.2550469  33.6474171   6.2838655  40.9559928  34.2810654   6.4368050
  39.7845584  33.9888902   5.5234295  48.0551755  26.2018778   4.1091206
  47.4023205  26.4494686   3.4543658  48.4332135  25.3882916   3.7753683
  44.1039328  26.9438589  10.5957243  43.4279965  26.8432718  11.2659618
  44.9266962  26.7877803  11.0593240  35.8518187  33.1810526   3.2169758
  36.4371624  32.4354214   3.3497662  35.6543025  33.4914482   4.1006422
  30.4435841  25.7516126   1.9374201  30.4819941  25.2179717   2.7311319
  29.9376134  25.2251331   1.3185178  37.8226604  20.5980666   5.4336743
  37.8867930  21.4595497   5.0214141  37.7593724  19.9854668   4.7009102
  37.2978876  22.6703799   9.0809778  37.9250915  22.2880876   9.6947302
  36.4406795  22.4518001   9.4465470  47.6972985  33.0766774  10.6863513
  48.2412889  33.6896732  10.1918468  47.1159830  33.6346353  11.2030526
  37.6038666  22.5536225   0.9955681  36.8825252  23.1672192   0.8563154
  38.3931922  23.0893989   0.9172327  40.4064980  19.8890651   7.2696333
  40.9299381  20.1352948   8.0322642  40.1877313  20.7210686   6.8499470
  35.8032261  22.1594326  -4.8632542  35.4744967  21.2791705  -5.0457436
  36.1571631  22.1041994  -3.9756153  41.6117525  20.8304346   4.9546003
  41.2714345  20.0312159   5.3566683  40.9056531  21.1306057   4.3822837
  42.2633996  17.9153659   3.4073326  43.0860066  17.4414137   3.2852217
  42.5072060  18.6944142   3.9072013  39.7872575  24.6072779   1.2165305
  39.6417156  24.9213082   2.1089587  39.3097779  25.2257680   0.6636204
  41.6468958  21.5975327   1.2646195  41.6330527  20.7016421   0.9278493
  42.3641386  21.6045991   1.8984481  43.4995089  22.0312667   3.3099322
  43.2412867  22.9529738   3.3083653  42.9680129  21.6343102   3.9999786
  34.2618237  27.1478124   4.1552966  33.7171705  27.9237932   4.2873241
  35.1397587  27.4948928   3.9972088  35.0484259  26.2748020   7.0483123
  34.3065995  26.4230655   7.6347754  34.7277003  26.5356286   6.1849873
  42.9927922  35.8163998   6.8463513  43.3015048  35.5713145   7.7186213
  43.7903404  36.0210637   6.3582383  33.6949478  32.0799775   0.0382451
  32.8581386  31.6521949  -0.1433547  33.6673123  32.2732218   0.9753243
  40.5346934  21.9921705  10.7423697  40.5835089  22.8683828  10.3601467
  41.0769448  21.4499098  10.1695341  51.0201779  32.5362828  10.0224834
  50.2297323  32.5186967   9.4829334  50.7835134  33.0751122  10.7773871
  51.1399654  29.3855295   7.3357563  51.1897659  29.2205302   8.2773086
  51.0313578  28.5182554   6.9455444  48.4303417  25.3686223   8.6516870
  49.3313279  25.2292687   8.3600868  48.5051391  25.5340677   9.5915047
  42.7646222  22.7453077   7.4970056  41.8949531  23.0386643   7.2252645
  43.0005702  23.3293522   8.2177320  52.6417851  31.8052236   7.5799585
  52.3502659  32.1682217   8.4163046  52.0289982  31.0919244   7.4012917
  50.8905039  26.9284851   6.0479643  51.3659161  27.1212497   5.2398494
  49.9670605  26.9844037   5.8023026  45.4685256  18.9632694   5.0135476
  45.9867200  19.6993721   4.6881965  45.1140389  19.2696688   5.8482236
  49.5906708  23.8050611   4.2807948  50.5424131  23.9048708   4.3020172
  49.4210159  23.0128879   4.7906033  47.6121088  20.8906194   4.4667349
  47.0171020  21.1711207   3.7713838  47.3270784  21.3800095   5.2384090
  43.7916810  29.9470530  10.8978109  44.7119819  30.1249129  11.0918155
  43.7566393  29.0026575  10.7457808  33.0098975  25.1409123  -0.1768617
  32.6901759  24.2874431  -0.4694243  32.4632403  25.3557701   0.5789351
  36.7878882  27.8571564   3.5400890  37.0064892  28.7888672   3.5588924
  37.2004656  27.4979539   4.3255694  41.6606747  23.4304770  12.9303639
  41.5603474  24.3799127  12.8615730  41.4428289  23.1023009  12.0579709
  32.8787235  28.7612035   1.7924505  32.1850706  28.3465988   1.2794459
  33.6260226  28.8032571   1.1957924  41.5238017  26.8601909  11.7468701
  41.0405099  27.6602269  11.9532590  41.6098956  26.8709854  10.7936145
  34.7923977  28.6930289  -0.3309480  34.7694665  28.7917976  -1.2827597
  35.1024614  29.5395439  -0.0092314  37.4511355  30.7506444   3.7837134
  38.4054608  30.7190386   3.7167066  37.2523878  30.2897067   4.5987360
  38.0410737  29.3207560   6.3507932  38.8603626  29.8151638   6.3742769
  38.3147545  28.4039528   6.3225500  33.2945651  23.6545693   7.0500129
  33.9404515  23.1444647   7.5387354  33.0862802  24.3914375   7.6243554
  45.8199043  30.7226541  12.5492270  46.6890203  30.8967193  12.1878905
  45.3405795  31.5420958  12.4267999  37.6343142  20.8013311  11.1475143
  38.4974604  20.4450115  11.3578468  37.0608553  20.4627205  11.8350548
  50.1924643  34.2094027  12.1405115  49.7991589  33.6560226  12.8152759
  51.0090783  34.5204606  12.5311632  48.1372631  37.9995717   9.0809778
  48.7644670  37.6172794   9.6947302  47.2800550  37.7809919   9.4465470
  52.5000502  38.7596688  12.9303639  52.3997229  39.7091045  12.8615730
  52.2822044  38.4314927  12.0579709  48.4736897  36.1305228  11.1475143
  49.3368358  35.7742033  11.3578468  47.9002307  35.7919123  11.8350548
   3.2796146  43.2589047  26.3545424   2.5259854  42.6896445  26.1989428
   3.4143687  43.2251711  27.3016059   3.6902561  43.4164657  29.0865668
   4.4205949  43.1549945  29.6473372   3.0809506  42.6793379  29.1267736
   1.7717858  41.5572519  29.6840119   1.0451022  41.4228484  29.0756611
   1.3565145  41.8649348  30.4896837   1.6966726  41.0850572  25.8116972
   1.1366284  41.1543762  26.5848534   1.0910229  40.9091557  25.0916468
   4.6568658  46.2418488  25.6616774   4.9627534  45.3815851  25.3742689
   5.3821262  46.8336108  25.4615768   2.3622829  46.0416814  27.0845757
   2.6424583  45.3740003  27.7106183   3.1473436  46.2345910  26.5720421
   2.2726361  45.1712352  23.6079346   1.5058757  44.6170839  23.7536028
   2.6837066  45.2434221  24.4693497   3.2796147  20.2651169  13.0790731
   2.5259856  19.6958567  12.9234735   3.4143688  20.2313834  14.0261365
   3.6902562  20.4226779  15.8110975   4.4205951  20.1612067  16.3718678
   3.0809508  19.6855501  15.8513043   1.7717859  18.5634642  16.4085426
   1.0451023  18.4290607  15.8001918   1.3565146  18.8711471  17.2142144
   1.6966727  18.0912695  12.5362279   1.1366285  18.1605884  13.3093841
   1.0910230  17.9153680  11.8161775   3.2822745  34.7669209  15.2292235
   3.9201155  34.6475956  14.5255575   3.1643588  35.7150053  15.2880187
   0.5732235  35.8731489  21.1239965   0.5620876  35.4784287  20.2520468
   0.7352874  35.1397561  21.7173736   2.8364014  32.4920663  12.3045443
   3.6227103  32.0740086  11.9535860   3.1002718  33.3966755  12.4727091
   8.2372441  32.4295896  13.2078421   8.9697613  31.8595113  13.4416251
   7.4811797  32.0417496  13.6484927   5.7597861  26.1417470  17.6673030
   5.4281186  27.0112881  17.4434245   5.1643475  25.8253754  18.3467060
   2.2529381  38.3430016  17.0668942   1.9530104  39.2455055  16.9584750
   1.9080441  38.0762199  17.9190095   5.6526525  30.8612556  14.7466380
   4.7443402  30.7927965  14.4525141   5.6014121  31.3384501  15.5748205
   7.5188171  29.0628995  16.5244254   6.8762551  29.3561528  15.8784048
   7.0143100  28.9481915  17.3297450   5.1728335  32.8092168   7.2130113
   6.0846191  33.0419555   7.0377811   4.6637982  33.3929212   6.6505192
   3.4569103  37.2316796  20.8491406   3.8652459  36.7899206  20.1046038
   2.7346364  36.6569423  21.1025598   3.7797917  37.7917986  14.6043694
   3.1506780  37.9563700  13.9019762   3.3923579  38.2059596  15.3754658
   7.6587149  38.7272424  11.9588058   6.9738187  39.1071326  11.4085092
   7.7430998  39.3367751  12.6920006   2.9599618  29.8293771  19.8806136
   2.7160550  30.5835831  19.3440412   3.2359548  30.2079118  20.7153383
   4.9138081  36.3732383  18.5583402   5.1254976  37.0164143  17.8817783
   4.8667829  35.5394700  18.0905332   2.5164310  28.9850204  15.4619974
   1.6548789  29.2831457  15.7536711   2.5426744  29.2020603  14.5301007
   6.0283909  39.2504339  16.7305759   6.8501352  38.8484526  16.4488441
   6.0246311  39.1472573  17.6821875  14.1189902  35.5943087  13.0790731
  13.3653610  35.0250485  12.9234735  14.2537443  35.5605752  14.0261365
   1.1357006  41.0880056  22.8845792   0.6920860  40.3016434  22.5666696
   1.7974220  41.2759206  22.2189683   3.2338244  41.3682856  20.9127193
   3.2156720  42.1891737  20.4207462   4.1558164  41.2436931  21.1377334
   2.8580993  23.9887051  17.2844343   2.5145263  24.8788693  17.2083454
   3.2259956  23.7988709  16.4213928   1.9377534  26.3591706  15.2493577
   1.4342329  26.3221842  14.4361382   2.2308141  27.2684449  15.3090233
   7.7965550  36.7328017   7.7269952   7.0194993  36.3939177   7.2825114
   8.4757031  36.7380640   7.0524917   2.6117579  31.8522754   7.6176560
   2.3067715  32.1668904   8.4686703   3.5648021  31.9304174   7.6603893
   6.0356857  36.2061998  14.3836560   5.3780531  36.8961260  14.4716689
   6.8397256  36.5958430  14.7270546   4.8462316  34.5606371  12.4340502
   5.3594198  35.1936363  12.9362211   5.4963540  33.9607566  12.0683862
   2.1078194  33.4347242   9.8101522   2.8550013  33.9468639   9.5008645
   2.3769784  33.1131295  10.6705916   5.6124112  39.5412372  10.5619644
   5.1586439  38.7003282  10.6184835   4.9818079  40.1773771  10.8994424
   4.5557032  30.4704358  11.7920312   3.8179788  29.9581745  12.1230554
   4.8083805  30.0304740  10.9803589   4.0557051  41.3788869  11.4969462
   4.3480026  41.9393926  10.7781828   4.5655672  41.6717430  12.2522622
   4.6568659  23.2480610  12.3862081   4.9627536  22.3877974  12.0987996
   5.3821264  23.8398231  12.1861075   2.4656310  32.6253288  19.4843545
   2.8205698  32.8524761  20.3438011   3.1128442  32.9571665  18.8620800
   8.1954047  35.7471724  10.1892874   8.0571946  35.9373320   9.2614063
   7.8390266  36.5091106  10.6460925   8.2223427  37.8148251  15.2004145
   8.6559933  37.7223540  16.0487199   8.9355008  37.7905751  14.5624161
   1.9551322  41.4150345  16.7337246   2.0088344  41.9841281  17.5014962
   1.0866103  41.5852230  16.3691283   9.0838976  37.8571951  17.7337031
   9.2774866  38.7617762  17.9796306   8.9839595  37.3979370  18.5675616
   4.1454085  38.0078694  23.3077911   3.9939591  37.7789246  22.3907995
   4.1358765  38.9649295  23.3209256   1.2632968  38.9842874  13.4511553
   0.9282801  38.9443644  14.3469203   0.7636914  38.3187590  12.9781963
   5.8546292  41.0397817  21.3854393   5.7958838  40.3557037  20.7184976
   6.2565810  41.7816807  20.9335019   5.8563699  39.0037401  19.6168373
   4.9690478  38.6663322  19.7394772   6.4262250  38.2720432  19.8537138
   2.4851282  28.7105252  12.7366643   2.9819982  27.9575215  12.4167713
   1.7138264  28.7469569  12.1709852  10.3381040  34.4145618  14.3784935
  10.3270916  35.2970333  14.0078868   9.4698419  34.0617169  14.1839472
   1.8463536  43.5625687  18.7387775   2.5591508  44.1973152  18.6663676
   1.3553565  43.6589553  17.9227777   3.5681063  37.4676940  10.3105066
   2.6337342  37.5878402  10.1409771   3.7457731  36.5649406  10.0465076
   6.9553614  33.3094259  10.8455101   7.4214066  34.1422250  10.7715403
   7.4061115  32.8439240  11.5500359   4.9270277  25.6774846  14.8846002
   4.0133357  25.9079073  15.0528209   5.3563378  25.7613290  15.7360034
   4.6976735  33.8664738  17.3845896   4.0448186  34.1140645  16.7298349
   5.0757115  33.0528876  17.0508373   4.3397966  40.7412734  23.9618203
   4.8837870  41.3542692  23.4673158   3.7584810  41.2992312  24.4785216
   2.6255479  43.8633452  15.0933231   2.5006618  43.0623192  14.5844177
   3.2834570  44.3579645  14.6047201   4.6890387  41.6642472  16.7212781
   3.7420722  41.5447823  16.6491108   5.0373160  40.7764970  16.8039043
   1.6936820  41.4595188  12.9217134   1.5461783  40.5311896  13.1024704
   2.5190314  41.4815279  12.4374209   5.2970942  42.2823747  14.0082006
   6.2217490  42.0766608  13.8706457   5.1286245  42.0340148  14.9171348
   1.6898335  29.3133026   7.9149251   1.9061949  30.1957664   7.6138079
   1.2092402  28.9219239   7.1854893   0.5622025  25.8290578  12.9455175
   0.5843722  25.8929911  11.9907154   0.9790084  24.9895086  13.1395681
  10.9405649  35.5645837  10.9834397  11.3836796  34.8153162  10.5853521
  10.0632160  35.5555974  10.6008129   7.9732854  39.5675884   7.9928327
   8.4984178  39.9063157   7.2677647   7.8855206  38.6322900   7.8091461
   7.6626760  40.2008788  23.2979525   6.8722304  40.1832927  22.7584024
   7.4260115  40.7397082  24.0528561   7.7824635  37.0501254  20.6112253
   7.8322640  36.8851262  21.5527776   7.6738558  36.1828513  20.2210134
   5.0728397  33.0332182  21.9271560   5.9738260  32.8938647  21.6355558
   5.1476372  33.1986637  22.8669737   9.2842832  39.4698196  20.8554275
   8.9927640  39.8328176  21.6917736   8.6714963  38.7565204  20.6767607
  10.4838514  37.0351076  13.3756845  11.3185406  37.4740880  13.5394405
  10.6197643  36.5589729  12.5565091   7.5330020  34.5930810  19.3234333
   8.0084142  34.7858457  18.5153184   6.6095585  34.6489996  19.0777716
   2.1110237  26.6278654  18.2890167   2.6292180  27.3639681  17.9636655
   1.7565369  26.9342647  19.1236926   2.3622831  23.0478937  13.8091063
   2.6424585  22.3802126  14.4351490   3.1473438  23.2408032  13.2965727
   6.2331689  31.4696571  17.5562638   7.1849112  31.5694668  17.5774862
   6.0635140  30.6774839  18.0660723   4.2546069  28.5552154  17.7422039
   3.6596001  28.8357166  17.0468528   3.9695765  29.0446055  18.5138780
   8.7119767  34.6902690  16.6704938   8.6796087  33.7518691  16.8564622
   9.3220391  34.7686727  15.9370763   8.8614255  31.4813734  16.7163221
   8.3453304  30.6972190  16.5293150   9.7454204  31.1532450  16.8809741
   6.5224982  25.2254749  12.6759034   6.3249803  24.9169837  13.5602366
   7.1324688  25.9516388  12.8056964  14.5296317  35.7518697  15.8110975
  15.2599705  35.4903985  16.3718678  13.9203262  35.0147419  15.8513043
  12.6111614  33.8926560  16.4085426  11.8844777  33.7582525  15.8001918
  12.1958901  34.2003388  17.2142144   2.2798629  25.1063656  10.4255565
   2.8329668  25.5259110  11.0845588   2.5168715  24.1799404  10.4678521
   5.6577436  27.2164181   9.9334230   5.0776105  27.8748985   9.5512282
   5.3913369  26.3941526   9.5221647   4.1081002  26.6169239  12.1355550
   4.6080781  26.7285773  11.3269869   4.7516610  26.3130292  12.7756358
   4.4402314  29.3764272   8.9890578   3.5528169  29.6613922   8.7710773
   4.8556303  29.2158035   8.1417855   7.7916850  29.4010793  12.7044917
   8.5677240  29.8907245  12.9769534   7.0664984  29.8268847  13.1616787
  10.2289409  30.1138412  13.7618858  10.8233900  29.8734148  13.0512166
  10.3015992  29.3945542  14.3892394   4.4143338  34.8918808   9.2040868
   4.3578539  35.3487359   8.3648500   4.9671680  34.1309492   9.0263711
   8.2248144  30.6808539  10.0290987   7.9685078  30.2805175  10.8599195
   7.6001012  31.3952333   9.9041127  12.5360482  33.4204613  12.5362279
  11.9760040  33.4897802  13.3093841  11.9303985  33.2445597  11.8161775
   2.4624024  38.3872501  25.8246960   3.3315184  38.5613153  25.4633595
   1.9830776  39.2066917  25.7022689   2.2726362  22.1774474  10.3324652
   1.5058758  21.6232961  10.4781335   2.6837067  22.2496343  11.1938804
  13.6757768  47.8212580  12.3045443  14.4620858  47.4032004  11.9535860
  13.9396473  48.7258673  12.4727091  19.0766196  47.7587814  13.2078421
  19.8091368  47.1887030  13.4416251  18.3205551  47.3709414  13.6484927
  16.5991616  41.4709388  17.6673030  16.2674941  42.3404799  17.4434245
  16.0037229  41.1545672  18.3467060  16.4920279  46.1904474  14.7466380
  15.5837157  46.1219882  14.4525141  16.4407875  46.6676419  15.5748205
  10.5661145  47.6094120  22.6901277   9.7894479  48.1688040  22.6804142
  11.2051708  48.0950903  23.2116147  18.3581926  44.3920912  16.5244254
  17.7156306  44.6853445  15.8784048  17.8536854  44.2773833  17.3297450
  16.0122089  48.1384086   7.2130113  16.9239945  48.3711472   7.0377811
  15.5031736  48.7221130   6.6505192  10.6493927  47.4981320  18.2224963
  11.4955122  47.9220734  18.3659612  10.5892565  46.8414944  18.9163526
  13.7993372  45.1585688  19.8806136  13.5554304  45.9127749  19.3440412
  14.0753303  45.5371036  20.7153383  13.3558064  44.3142121  15.4619974
  12.4942543  44.6123375  15.7536711  13.3820499  44.5312520  14.5301007
   7.5568881  47.5719221  23.0534554   6.9267542  48.2535502  23.2869951
   7.4504969  47.4602303  22.1087692  24.9583656  50.9235005  13.0790731
  24.2047365  50.3542403  12.9234735  25.0931197  50.8897669  14.0261365
   6.8349624  41.8739987  25.4159805   6.4416569  41.3206185  26.0907449
   7.6515764  42.1850565  25.8066323   9.7517585  43.2897866  23.0080062
  10.4927298  43.8905019  22.9284524   9.9835508  42.5475504  22.4498104
  13.6974748  39.3178969  17.2844343  13.3539017  40.2080611  17.2083454
  14.0653710  39.1280627  16.4213928  11.2472142  44.1537281  10.8502017
  10.3913738  43.7644131  10.6707656  11.6599093  44.2329242   9.9901802
  12.7771288  41.6883624  15.2493577  12.2736084  41.6513759  14.4361382
  13.0701895  42.5976367  15.3090233   9.0214174  41.7722354  14.2559758
   9.8867171  41.5765162  13.8965648   9.0891683  41.5432706  15.1829115
  18.6359305  52.0619935   7.7269952  17.8588747  51.7231094   7.2825114
  19.3150786  52.0672558   7.0524917  13.4511334  47.1814672   7.6176560
  13.1461469  47.4960821   8.4686703  14.4041776  47.2596092   7.6603893
   6.6276493  44.0024562  11.6276125   7.2020245  43.7799743  10.8949318
   7.2147476  44.0713256  12.3804726  15.6856070  49.8898289  12.4340502
  16.1987952  50.5228280  12.9362211  16.3357294  49.2899484  12.0683862
   8.9299161  40.8765811  10.3551195   8.2763573  40.5614828   9.7307809
   8.8879635  40.2541551  11.0811018  12.1636901  47.3647744  14.6798842
  11.2459463  47.5862691  14.5220530  12.5797045  47.4394055  13.8210550
  12.9471949  48.7639160   9.8101522  13.6943768  49.2760557   9.5008645
  13.2163539  48.4423213  10.6705916  15.3950786  45.7996276  11.7920312
  14.6573543  45.2873662  12.1230554  15.6477560  45.3596658  10.9803589
  15.4962413  38.5772528  12.3862081  15.8021290  37.7169892  12.0987996
  16.2215018  39.1690148  12.1861075   9.7683493  48.8726321  12.8938272
   9.8232103  47.9200158  12.8180749   8.9574695  49.0285760  13.3779571
  13.3050065  47.9545205  19.4843545  13.6599452  48.1816679  20.3438011
  13.9522196  48.2863582  18.8620800  19.0347802  51.0763641  10.1892874
  18.8965700  51.2665237   9.2614063  18.6784021  51.8383024  10.6460925
   7.1989928  45.0621736  16.2689886   7.8389307  44.9210496  15.5712849
   6.3667458  44.7756250  15.8928488   5.6743470  46.4459819  18.2161697
   6.3466523  46.2377181  17.5674346   4.8473256  46.2481905  17.7766930
  11.5769042  43.0721760  20.2327358  10.9296957  43.7711709  20.1391835
  12.3470057  43.5057903  20.6003606   7.4182202  46.4187599  20.2843454
   6.8819559  45.9678337  20.9365050   6.8298910  46.5533508  19.5413918
   3.1521323  45.5543606  17.3696448   3.0679511  44.9469276  16.6346858
   2.3304029  46.0452625  17.3705944  13.3245037  44.0397170  12.7366643
  13.8213736  43.2867132  12.4167713  12.5532018  44.0761487  12.1709852
  21.1774794  49.7437536  14.3784935  21.1664670  50.6262251  14.0078868
  20.3092173  49.3909086  14.1839472   9.9080005  46.1814553  12.4638328
   9.5377793  45.6285593  13.1519233  10.4039098  45.5772686  11.9113328
  17.7947369  48.6386177  10.8455101  18.2607821  49.4714168  10.7715403
  18.2454869  48.1731158  11.5500359  15.7664031  41.0066764  14.8846002
  14.8527111  41.2370990  15.0528209  16.1957133  41.0905208  15.7360034
  15.5370490  49.1956655  17.3845896  14.8841940  49.4432563  16.7298349
  15.9150870  48.3820794  17.0508373  11.5858063  49.9376467  23.8711933
  10.9098700  49.8370596  24.5414308  12.4085697  49.7815680  24.3347930
   5.3045339  43.5918544  18.7091434   5.3686666  44.4533375  18.2968831
   5.2412459  42.9792545  17.9763792   4.7797612  45.6641676  22.3564468
   5.4069650  45.2818754  22.9701992   3.9225530  45.4455878  22.7220161
   5.0857401  45.5474102  14.2710371   4.3643987  46.1610070  14.1317845
   5.8750657  46.0831867  14.1927017   7.8883715  42.8828529  20.5451023
   8.4118117  43.1290825  21.3077333   7.6696048  43.7148563  20.1254161
   9.0936260  43.8242224  18.2300694   8.7533080  43.0250037  18.6321374
   8.3875266  44.1243934  17.6577527   9.7452732  40.9091536  16.6828017
  10.5678801  40.4352014  16.5606907   9.9890795  41.6882020  17.1826703
  12.5292089  44.6424943   7.9149251  12.7455703  45.5249581   7.6138079
  12.0486156  44.2511157   7.1854893   7.2691310  47.6010657  14.4919995
   7.1235891  47.9150960  15.3844277   6.7916514  48.2195557  13.9390894
   9.1287693  44.5913205  14.5400885   9.1149262  43.6954298  14.2033183
   9.8460121  44.5983868  15.1739171  10.9813824  45.0250545  16.5854012
  10.7231602  45.9467616  16.5838343  10.4498864  44.6280979  17.2754476
   8.5324589  43.4727585   9.8088455   8.6540500  42.5444231  10.0079343
   8.2426632  43.4866271   8.8966770  11.4015780  41.1582495  12.9455175
  11.4237476  41.2221828  11.9907154  11.8183839  40.3187004  13.1395681
  21.7799404  50.8937755  10.9834397  22.2230550  50.1445080  10.5853521
  20.9025914  50.8847891  10.6008129   8.0165669  44.9859582  24.0178388
   8.0653824  45.8621705  23.6356157   8.5588183  44.4436975  23.4450031
  18.6218390  52.3793172  20.6112253  18.6716394  52.2143179  21.5527776
  18.5132313  51.5120431  20.2210134  15.9122152  48.3624100  21.9271560
  16.8132015  48.2230565  21.6355558  15.9870126  48.5278555  22.8669737
  10.2464957  45.7390955  20.7724746   9.3768267  46.0324521  20.5007335
  10.4824438  46.3231400  21.4932010  21.3232269  52.3642993  13.3756845
  22.1579160  52.8032797  13.5394405  21.4591397  51.8881646  12.5565091
  18.3723775  49.9222728  19.3234333  18.8477896  50.1150374  18.5153184
  17.4489340  49.9781914  19.0777716  12.9503991  41.9570572  18.2890167
  13.4685935  42.6931599  17.9636655  12.5959124  42.2634565  19.1236926
  13.2016585  38.3770854  13.8091063  13.4818339  37.7094043  14.4351490
  13.9867192  38.5699950  13.2965727  17.0725444  46.7988488  17.5562638
  18.0242866  46.8986586  17.5774862  16.9028894  46.0066757  18.0660723
  15.0939823  43.8844071  17.7422039  14.4989755  44.1649084  17.0468528
  14.8089520  44.3737972  18.5138780  19.5513521  50.0194608  16.6704938
  19.5189841  49.0810609  16.8564622  20.1614145  50.0978645  15.9370763
  19.7008010  46.8105651  16.7163221  19.1847059  46.0264108  16.5293150
  20.5847958  46.4824368  16.8809741  17.3618737  40.5546667  12.6759034
  17.1643558  40.2461755  13.5602366  17.9718442  41.2808306  12.8056964
  25.3690071  51.0810615  15.8110975  26.0993460  50.8195903  16.3718678
  24.7597017  50.3439337  15.8513043  23.4505368  49.2218477  16.4085426
  22.7238532  49.0874442  15.8001918  23.0352655  49.5295306  17.2142144
  11.1901835  41.3577527   8.8031269  10.3802563  41.0124612   9.1786515
  11.8786252  41.0485071   9.3918880  13.1192383  40.4355574  10.4255565
  13.6723422  40.8551027  11.0845588  13.3562470  39.5091322  10.4678521
   9.1425483  46.4242647  26.2058329   9.0422210  47.3737004  26.1370420
   8.9247025  46.0960886  25.3334399  16.4971190  42.5456099   9.9334230
  15.9169860  43.2040903   9.5512282  16.2307123  41.7233444   9.5221647
  14.9474757  41.9461157  12.1355550  15.4474535  42.0577691  11.3269869
  15.5910365  41.6422209  12.7756358  15.2796069  44.7056189   8.9890578
  14.3921924  44.9905840   8.7710773  15.6950058  44.5449953   8.1417855
  18.6310605  44.7302710  12.7044917  19.4070995  45.2199163  12.9769534
  17.9058739  45.1560764  13.1616787  21.0683163  45.4430329  13.7618858
  21.6627654  45.2026065  13.0512166  21.1409747  44.7237460  14.3892394
  15.2537092  50.2210725   9.2040868  15.1972294  50.6779277   8.3648500
  15.8065435  49.4601410   9.0263711  19.0641898  46.0100457  10.0290987
  18.8078832  45.6097093  10.8599195  18.4394766  46.7244251   9.9041127
  23.3754236  48.7496530  12.5362279  22.8153794  48.8189720  13.3093841
  22.7697739  48.5737515  11.8161775  13.1120116  37.5066392  10.3324652
  12.3452512  36.9524879  10.4781335  13.5230821  37.5788261  11.1938804
   5.1161878  43.7951188  24.4229834   5.9793339  43.4387993  24.6333158
   4.5427288  43.4565083  25.1105238  26.3356168  53.9064446  12.3862081
  26.6415045  53.0461809  12.0987996  27.0608773  54.4982066  12.1861075
  24.0410340  53.7062772  13.8091063  24.3212094  53.0385961  14.4351490
  24.8260947  53.8991867  13.2965727  23.9513871  52.8358310  10.3324652
  23.1846267  52.2816796  10.4781335  24.3624576  52.9080179  11.1938804
   4.3397967  17.7474856  10.6863510   4.8837871  18.3604815  10.1918465
   3.7584812  18.3054435  11.2030523   7.6626761  17.2070911  10.0224831
   6.8722305  17.1895049   9.4829331   7.4260116  17.7459204  10.7773868
   2.4624026  15.3934623  12.5492267   3.3315185  15.5675276  12.1878901
   1.9830777  16.2129040  12.4267996  14.1216501  27.1023249   1.9537541
  14.7594911  26.9829997   1.2500881  14.0037344  28.0504093   2.0125493
  11.4125991  28.2085529   7.8485271  11.4014631  27.8138327   6.9765775
  11.5746630  27.4751602   8.4419043   8.1333252  30.9922641   6.7964455
   7.8423118  31.8968272   6.6811122   8.7690236  31.0339168   7.5108525
   9.0589459  28.3699489   3.3865815   9.6553031  28.1455512   2.6722778
   9.1164430  27.6284235   3.9891263  19.0766197  24.7649936  -0.0676272
  19.8091369  24.1949153   0.1661557  18.3205553  24.3771537   0.3730233
  16.5991617  18.4771510   4.3918336  16.2674942  19.3466921   4.1679551
  16.0037231  18.1607794   5.0712367  13.0923137  30.6784056   3.7914249
  12.7923860  31.5809095   3.6830056  12.7474196  30.4116240   4.6435402
  10.5661146  24.6156242   9.4146584   9.7894480  25.1750162   9.4049448
  11.2051709  25.1013025   9.9361454  18.3581927  21.3983035   3.2489560
  17.7156307  21.6915568   2.6029355  17.8536855  21.2835955   4.0542757
   8.8207519  27.4241695   8.9764551   9.5622203  27.9626739   8.6999374
   8.1144504  28.0507984   9.1336102  14.2962858  29.5670836   7.5736712
  14.7046214  29.1253246   6.8291345  13.5740120  28.9923463   7.8270905
  10.6493928  24.5043443   4.9470269  11.4955124  24.9282856   5.0904918
  10.5892566  23.8477067   5.6408832  14.6191673  30.1272027   1.3289001
  13.9900535  30.2917741   0.6265069  14.2317335  30.5413636   2.0999965
  18.4980905  31.0626464  -1.3166635  17.8131943  31.4425366  -1.8669602
  18.5824754  31.6721791  -0.5834687  13.7993374  22.1647811   6.6051443
  13.5554306  22.9189872   6.0685718  14.0753304  22.5433159   7.4398690
  15.7531836  28.7086423   5.2828708  15.9648732  29.3518183   4.6063089
  15.7061585  27.8748740   4.8150638   7.5568882  24.5781344   9.7779861
   6.9267543  25.2597625  10.0115258   7.4504970  24.4664425   8.8332999
  16.8677664  31.5858379   3.4551066  17.6895108  31.1838566   3.1733747
  16.8640067  31.4826613   4.4067181  10.6334268  31.1342422   5.6111776
  10.6978700  31.5962829   6.4469948   9.9245192  30.5039787   5.7394086
  24.9583657  27.9297127  -0.1963963  24.2047366  27.3604525  -0.3519958
  25.0931199  27.8959792   0.7506672   6.8349625  18.8802110  12.1405112
   6.4416571  18.3268308  12.8152756   7.6515765  19.1912688  12.5311629
   9.7517586  20.2959989   9.7325368  10.4927299  20.8967142   9.6529831
   9.9835509  19.5537626   9.1743411   4.8958924  25.4816356   8.0103598
   4.7812439  24.5801613   8.3110697   4.0403442  25.7280053   7.6588415
  11.9750762  33.4234096   9.6091099  11.5314616  32.6370475   9.2912003
  12.6367975  33.6113247   8.9434989  14.0732000  33.7036896   7.6372500
  14.0550475  34.5245777   7.1452769  14.9951920  33.5790971   7.8622641
  10.5305054  31.2181026   8.4796008  11.0633391  30.4569314   8.2495316
  10.0019135  30.9254677   9.2220163  16.8750613  28.5416039   1.1081867
  16.2174287  29.2315300   1.1961995  17.6791012  28.9312470   1.4515853
  16.4517868  31.8766413  -2.7135049  15.9980195  31.0357323  -2.6569859
  15.8211835  32.5127811  -2.3760269  14.8950807  33.7142909  -1.7785231
  15.1873781  34.2747966  -2.4972865  15.4049428  34.0071470  -1.0232072
  13.3050066  24.9607328   6.2088851  13.6599454  25.1878801   7.0683317
  13.9522197  25.2925705   5.5866107  19.0617183  30.1502291   1.9249452
  19.4953689  30.0577580   2.7732506  19.7748763  30.1259791   1.2869468
  12.7945077  33.7504385   3.4582553  12.8482100  34.3195321   4.2260269
  11.9259859  33.9206270   3.0936590  19.9232732  30.1925992   4.4582337
  20.1168622  31.0971802   4.7041612  19.8233350  29.7333411   5.2920922
  11.5769043  20.0783882   6.9572665  10.9296958  20.7773832   6.8637141
  12.3470058  20.5120026   7.3248913  14.9847841  30.3432734  10.0323218
  14.8333347  30.1143286   9.1153302  14.9752520  31.3003336  10.0454563
  11.7533177  27.9164647   5.0169484  12.6825237  28.0675807   4.8438452
  11.3324207  28.0048668   4.1618131  10.5521509  31.9415311   2.7868022
  10.4132595  31.5734096   3.6593960   9.7636105  32.4562951   2.6151980
  12.1026724  31.3196914   0.1756860  11.7676557  31.2797684   1.0714510
  11.6030670  30.6541630  -0.2972730   6.0770968  26.7264544   5.7009441
   5.9390766  25.9944783   6.3020980   6.9875892  26.6373444   5.4193629
   8.7053269  26.4384504   5.1893121   9.4152887  25.7977696   5.1479739
   8.6622577  26.6897398   6.1119301  16.6940047  33.3751857   8.1099700
  16.6352594  32.6911077   7.4430283  17.0959566  34.1170847   7.6580326
   7.4182203  23.4249721   7.0088760   6.8819560  22.9740460   7.6610357
   6.8298911  23.5595630   6.2659225  16.6957455  31.3391441   6.3413680
  15.8084233  31.0017363   6.4640078  17.2656006  30.6074472   6.5782445
  21.1774795  26.7499658   1.1030241  21.1664672  27.6324374   0.7324174
  20.3092175  26.3971209   0.9084778  12.6857292  35.8979727   5.4633081
  13.3985264  36.5327192   5.3908983  12.1947320  35.9943593   4.6473083
   7.7369205  33.6474171   6.2838652   8.4378665  34.2810654   6.4368046
   7.2664320  33.9888902   5.5234292  15.5370491  26.2018778   4.1091203
  14.8841941  26.4494686   3.4543655  15.9150871  25.3882916   3.7753680
  11.5858064  26.9438589  10.5957240  10.9098701  26.8432718  11.2659615
  12.4085698  26.7877803  11.0593237  10.3280847  38.2505517   4.8314856
  10.8799155  38.4137138   5.5963941  10.6687041  38.8409954   4.1594881
   4.7797613  22.6703799   9.0809775   5.4069652  22.2880876   9.6947299
   3.9225532  22.4518001   9.4465467  15.1791721  33.0766774  10.6863510
  15.7231625  33.6896732  10.1918465  14.5978566  33.6346353  11.2030523
  13.4649234  36.1987492   1.8178538  13.3400374  35.3977232   1.3089483
  14.1228325  36.6933685   1.3292508  15.5284143  33.9996512   3.4458088
  14.5814478  33.8801863   3.3736415  15.8766916  33.1119010   3.5284349
   7.8883716  19.8890651   7.2696330   8.4118118  20.1352948   8.0322639
   7.6696049  20.7210686   6.8499467  12.5330576  33.7949228  -0.3537560
  12.3855538  32.8665936  -0.1729990  13.3584070  33.8169319  -0.8380485
  16.1364698  34.6177787   0.7327313  17.0611245  34.4120648   0.5951764
  15.9680001  34.3694188   1.6416654  21.7799405  27.8999878  -2.2920296
  22.2230551  27.1507203  -2.6901173  20.9025916  27.8910014  -2.6746564
   2.5302996  26.2748020   7.0483120   1.7884732  26.4230655   7.6347750
   2.2095740  26.5356286   6.1849869  10.4746658  35.8163998   6.8463510
  10.7833785  35.5713145   7.7186210  11.2722140  36.0210637   6.3582380
   8.0165670  21.9921705  10.7423694   8.0653826  22.8683828  10.3601464
   8.5588184  21.4499098  10.1695338  18.5020516  32.5362828  10.0224831
  17.7116059  32.5186967   9.4829331  18.2653870  33.0751122  10.7773868
  18.6218391  29.3855295   7.3357560  18.6716396  29.2205302   8.2773083
  18.5132314  28.5182554   6.9455441  15.9122153  25.3686223   8.6516867
  16.8132016  25.2292687   8.3600864  15.9870128  25.5340677   9.5915044
  10.2464959  22.7453077   7.4970053   9.3768268  23.0386643   7.2252641
  10.4824439  23.3293522   8.2177317  20.1236588  31.8052236   7.5799581
  19.8321396  32.1682217   8.4163042  19.5108719  31.0919244   7.4012914
  21.3232270  29.3705116   0.1002152  22.1579161  29.8094920   0.2639712
  21.4591399  28.8943769  -0.7189603  18.3723776  26.9284851   6.0479639
  18.8477897  27.1212497   5.2398491  17.4489341  26.9844037   5.8023023
  12.9503992  18.9632694   5.0135473  13.4685936  19.6993721   4.6881962
  12.5959125  19.2696688   5.8482232  17.0725445  23.8050611   4.2807945
  18.0242868  23.9048708   4.3020169  16.9028895  23.0128879   4.7906029
  15.0939824  20.8906194   4.4667346  14.4989756  21.1711207   3.7713835
  14.8089521  21.3800095   5.2384087  19.5513523  27.0256730   3.3950245
  19.5189843  26.0872731   3.5809929  20.1614146  27.1040767   2.6616070
  19.7008011  23.8167774   3.4408528  19.1847060  23.0326231   3.2538457
  20.5847960  23.4886491   3.6055047  25.3690072  28.0872737   2.5356281
  26.0993461  27.8258025   3.0963985  24.7597018  27.3501459   2.5758349
  23.4505370  26.2280600   3.1330733  22.7238533  26.0936565   2.5247224
  23.0352656  26.5357429   3.9387451  11.2735546  29.9470530  10.8978106
  12.1938556  30.1249129  11.0918152  11.2385129  29.0026575  10.7457805
   4.2697619  27.8571564   3.5400887   4.4883628  28.7888672   3.5588921
   4.6823392  27.4979539   4.3255691   9.1425484  23.4304770  12.9303636
   9.0422211  24.3799127  12.8615727   8.9247026  23.1023009  12.0579706
   9.0056754  26.8601909  11.7468697   8.5223836  27.6602269  11.9532586
   9.0917693  26.8709854  10.7936141   4.9330091  30.7506444   3.7837131
   5.8873345  30.7190386   3.7167063   4.7342615  30.2897067   4.5987357
   5.5229474  29.3207560   6.3507929   6.3422363  29.8151638   6.3742766
   5.7966281  28.4039528   6.3225496  21.0683165  22.4492452   0.4864164
  21.6627655  22.2088188  -0.2242527  21.1409748  21.7299583   1.1137701
  23.3754237  25.7558653  -0.7392415  22.8153795  25.8251842   0.0339148
  22.7697741  25.5799638  -1.4592918  13.3017780  30.7226541  12.5492267
  14.1708940  30.8967193  12.1878901  12.8224531  31.5420958  12.4267996
   5.1161879  20.8013311  11.1475140   5.9793340  20.4450115  11.3578465
   4.5427289  20.4627205  11.8350544  21.7699962  42.3842595   1.8899066
  21.4318474  42.2683660   1.0019601  22.6389730  41.9833760   1.8700072
  22.2519745  43.5377447   7.8485271  22.2408386  43.1430245   6.9765775
  22.4140384  42.8043519   8.4419043  18.9727006  46.3214559   6.7964455
  18.6816872  47.2260189   6.6811122  19.6083991  46.3631086   7.5108525
  19.8983213  43.6991407   3.3865815  20.4946785  43.4747429   2.6722778
  19.9558185  42.9576153   3.9891263  27.4385372  33.8063428   4.3918336
  27.1068696  34.6758839   4.1679551  26.8430985  33.4899712   5.0712367
  27.3314035  38.5258514   1.4711686  26.4230912  38.4573923   1.1770447
  27.2801631  39.0030459   2.2993512  21.4054901  39.9448160   9.4146584
  20.6288235  40.5042080   9.4049448  22.0445464  40.4304943   9.9361454
  29.1975681  36.7274953   3.2489560  28.5550062  37.0207486   2.6029355
  28.6930610  36.6127873   4.0542757  19.6601273  42.7533613   8.9764551
  20.4015957  43.2918657   8.6999374  18.9538259  43.3799902   9.1336102
  25.1356613  44.8962754   7.5736712  25.5439969  44.4545164   6.8291345
  24.4133874  44.3215381   7.8270905  21.4887683  39.8335360   4.9470269
  22.3348878  40.2574774   5.0904918  21.4286320  39.1768985   5.6408832
  24.6387128  37.4939729   6.6051443  24.3948060  38.2481789   6.0685718
  24.9147059  37.8725076   7.4398690  26.5925591  44.0378341   5.2828708
  26.8042486  44.6810101   4.6063089  26.5455339  43.2040658   4.8150638
  24.1951820  36.6496162   2.1865280  23.3336299  36.9477415   2.4782018
  24.2214255  36.8666561   1.2546313  18.3962637  39.9073261   9.7779861
  17.7661297  40.5889542  10.0115258  18.2898725  39.7956343   8.8332999
  21.4728022  46.4634340   5.6111776  21.5372455  46.9254747   6.4469948
  20.7638946  45.8331705   5.7394086  17.6743380  34.2094027  12.1405112
  17.2810325  33.6560226  12.8152756  18.4909520  34.5204606  12.5311629
  20.5911341  35.6251906   9.7325368  21.3321054  36.2259059   9.6529831
  20.8229263  34.8829544   9.1743411  15.7352679  40.8108274   8.0103598
  15.6206194  39.9093531   8.3110697  14.8797196  41.0571970   7.6588415
  22.8144516  48.7526014   9.6091099  22.3708371  47.9662392   9.2912003
  23.4761730  48.9405164   8.9434989  24.9125754  49.0328814   7.6372500
  24.8944230  49.8537695   7.1452769  25.8345674  48.9082889   7.8622641
  21.3698809  46.5472943   8.4796008  21.9027145  45.7861231   8.2495316
  20.8412890  46.2546595   9.2220163  24.5368504  31.6533009   4.0089650
  24.1932773  32.5434651   3.9328761  24.9047466  31.4634667   3.1459235
  23.6165044  34.0237664   1.9738883  23.1129839  33.9867800   1.1606689
  23.9095651  34.9330407   2.0335540  19.8607930  34.1076394   0.9805065
  20.7260927  33.9119203   0.6210954  19.9285439  33.8786746   1.9074422
  17.4670249  36.3378602  -1.6478568  18.0414001  36.1153784  -2.3805375
  18.0541231  36.4067297  -0.8949967  19.7692917  33.2119851  -2.9203499
  19.1157329  32.8968868  -3.5446884  19.7273391  32.5895591  -2.1943676
  23.0030657  39.7001784   1.4044149  22.0853218  39.9216731   1.2465837
  23.4190801  39.7748095   0.5455856  26.3356169  30.9126568  -0.8892612
  26.6415046  30.0523932  -1.1766697  27.0608774  31.5044189  -1.0893618
  20.6077249  41.2080361  -0.3816421  20.6625859  40.2554198  -0.4573945
  19.7968451  41.3639801   0.1024877  24.1443821  40.2899246   6.2088851
  24.4993208  40.5170719   7.0683317  24.7915952  40.6217622   5.5866107
  18.0383684  37.3975777   2.9935193  18.6783063  37.2564536   2.2958156
  17.2061214  37.1110290   2.6173795  16.5137225  38.7813859   4.9407004
  17.1860279  38.5731221   4.2919653  15.6867012  38.5835945   4.5012236
  22.4162797  35.4075800   6.9572665  21.7690712  36.1065749   6.8637141
  23.1863813  35.8411944   7.3248913  25.8241595  45.6724652  10.0323218
  25.6727102  45.4435204   9.1153302  25.8146275  46.6295253  10.0454563
  22.5926932  43.2456565   5.0169484  23.5218992  43.3967724   4.8438452
  22.1717962  43.3340586   4.1618131  16.9164723  42.0556462   5.7009441
  16.7784521  41.3236701   6.3020980  17.8269646  41.9665362   5.4193629
  19.5447023  41.7676421   5.1893121  20.2546642  41.1269613   5.1479739
  19.5016331  42.0189316   6.1119301  27.5333802  48.7043775   8.1099700
  27.4746348  48.0202995   7.4430283  27.9353320  49.4462765   7.6580326
  18.2575957  38.7541639   7.0088760  17.7213314  38.3032378   7.6610357
  17.6692666  38.8887548   6.2659225  27.5351209  46.6683358   6.3413680
  26.6477988  46.3309280   6.4640078  28.1049760  45.9366390   6.5782445
  13.9915078  37.8897647   4.0941755  13.9073267  37.2823316   3.3592165
  13.1697785  38.3806665   4.0951251  24.1638792  36.3751210  -0.5388050
  24.6607492  35.6221173  -0.8586980  23.3925774  36.4115527  -1.1044841
  20.7473761  38.5168593  -0.8116366  20.3771549  37.9639634  -0.1235460
  21.2432854  37.9126727  -1.3641366  18.5762960  48.9766088   6.2838652
  19.2772419  49.6102571   6.4368046  18.1058075  49.3180820   5.5234292
  26.6057787  33.3420804   1.6091309  25.6920867  33.5725031   1.7773516
  27.0350889  33.4259248   2.4605341  26.3764246  41.5310696   4.1091203
  25.7235696  41.7786603   3.4543655  26.7544626  40.7174834   3.7753680
  22.4251819  42.2730507  10.5957240  21.7492456  42.1724636  11.2659615
  23.2479453  42.1169721  11.0593237  16.1439095  35.9272584   5.4336740
  16.2080421  36.7887415   5.0214138  16.0806215  35.3146586   4.7009099
  15.6191367  37.9995717   9.0809775  16.2463406  37.6172794   9.6947299
  14.7619286  37.7809919   9.4465467  26.0185476  48.4058692  10.6863510
  26.5625380  49.0188650  10.1918465  25.4372321  48.9638270  11.2030523
  15.9251157  37.8828142   0.9955678  15.2037743  38.4964110   0.8563151
  16.7144413  38.4185907   0.9172324  18.7277471  35.2182569   7.2696330
  19.2511872  35.4644865   8.0322639  18.5089804  36.0502604   6.8499467
  19.9330016  36.1596264   4.9546000  19.5926836  35.3604077   5.3566680
  19.2269022  36.4597975   4.3822834  20.5846487  33.2445576   3.4073323
  21.4072557  32.7706055   3.2852214  20.8284551  34.0236060   3.9072010
  18.1085066  39.9364697   1.2165302  17.9629647  40.2505000   2.1089584
  17.6310270  40.5549597   0.6636201  19.9681449  36.9267245   1.2646192
  19.9543018  36.0308338   0.9278490  20.6853877  36.9337909   1.8984478
  21.8207580  37.3604585   3.3099319  21.5625358  38.2821656   3.3083649
  21.2892620  36.9635020   3.9999783  22.2409535  33.4936536  -0.3299518
  22.2631232  33.5575869  -1.2847539  22.6577594  32.6541044  -0.1359012
  13.3696750  41.6039938   7.0483120  12.6278486  41.7522573   7.6347750
  13.0489495  41.8648203   6.1849869  21.3140413  51.1455916   6.8463510
  21.6227539  50.9005063   7.7186210  22.1115895  51.3502554   6.3582380
  18.8559425  37.3213623  10.7423694  18.9047580  38.1975745  10.3601464
  19.3981939  36.7791016  10.1695338  29.3414270  47.8654746  10.0224831
  28.5509814  47.8478885   9.4829331  29.1047625  48.4043040  10.7773868
  29.4612145  44.7147212   7.3357560  29.5110150  44.5497220   8.2773083
  29.3526069  43.8474471   6.9455441  26.7515908  40.6978140   8.6516867
  27.6525770  40.5584605   8.3600864  26.8263882  40.8632595   9.5915044
  21.0858713  38.0744995   7.4970053  20.2162022  38.3678561   7.2252641
  21.3218193  38.6585440   8.2177317  30.9630342  47.1344154   7.5799581
  30.6715150  47.4974134   8.4163042  30.3502473  46.4211162   7.4012914
  29.2117530  42.2576768   6.0479639  29.6871652  42.4504415   5.2398491
  28.2883096  42.3135954   5.8023023  23.7897747  34.2924612   5.0135473
  24.3079691  35.0285639   4.6881962  23.4352880  34.5988605   5.8482232
  24.0410341  30.7124894   0.5336370  24.3212095  30.0448084   1.1596796
  24.8260948  30.9053990   0.0211034  27.9119199  39.1342528   4.2807945
  28.8636622  39.2340626   4.3020169  27.7422650  38.3420797   4.7906029
  25.9333579  36.2198112   4.4667346  25.3383511  36.5003124   3.7713835
  25.6483276  36.7092013   5.2384087  30.5401766  39.1459692   3.4408528
  30.0240814  38.3618148   3.2538457  31.4241714  38.8178408   3.6055047
  28.2012493  32.8900707  -0.5995659  28.0037314  32.5815795   0.2847673
  28.8112198  33.6162346  -0.4697730  22.1129301  45.2762447  10.8978106
  23.0332310  45.4541046  11.0918152  22.0778884  44.3318493  10.7457805
  15.1091373  43.1863482   3.5400887  15.3277383  44.1180590   3.5588921
  15.5217147  42.8271456   4.3255691  23.9586139  32.7709614  -2.8499128
  24.5117178  33.1905067  -2.1909105  24.1956226  31.8445362  -2.8076172
  19.9819238  38.7596688  12.9303636  19.8815965  39.7091045  12.8615727
  19.7640780  38.4314927  12.0579706  25.7868513  34.2815197  -1.1399144
  26.2868291  34.3931731  -1.9484825  26.4304121  33.9776250  -0.4998335
  19.8450508  42.1893827  11.7468697  19.3617590  42.9894187  11.9532586
  19.9311447  42.2001771  10.7936141  15.7723846  46.0798361   3.7837131
  16.7267099  46.0482304   3.7167063  15.5736370  45.6188985   4.5987357
  16.3623228  44.6499477   6.3507929  17.1816117  45.1443556   6.3742766
  16.6360036  43.7331445   6.3225496  11.6158142  38.9837611   7.0500126
  12.2617006  38.4736565   7.5387351  11.4075293  39.7206293   7.6243551
  24.1411535  46.0518459  12.5492267  25.0102694  46.2259111  12.1878901
  23.6618286  46.8712875  12.4267996  23.9513872  29.8420432  -2.9430041
  23.1846268  29.2878919  -2.7973359  24.3624577  29.9142301  -2.0815889
  15.9555633  36.1305228  11.1475140  16.8187095  35.7742033  11.3578465
  15.3821044  35.7919123  11.8350544  28.5137134  49.5385945  12.1405112
  28.1204080  48.9852143  12.8152756  29.3303274  49.8496523  12.5311629
  26.4585122  53.3287634   9.0809775  27.0857161  52.9464712   9.6947299
  25.6013041  53.1101836   9.4465467  30.8212993  54.0888605  12.9303636
  30.7209720  55.0382962  12.8615727  30.6034535  53.7606844  12.0579706
  26.7949388  51.4597146  11.1475140  27.6580849  51.1033951  11.3578465
  26.2214798  51.1211041  11.8350544  26.0185477  25.4120814  -2.5891183
  26.5625381  26.0250773  -3.0836228  25.4372322  25.9700393  -2.0724170
  29.3414271  24.8716868  -3.2529862  28.5509815  24.8541007  -3.7925363
  29.1047626  25.4105162  -2.4980825  24.1411536  23.0580581  -0.7262427
  25.0102695  23.2321233  -1.0875792  23.6618287  23.8774998  -0.8486697
  28.5137135  26.5448067  -1.1349582  28.1204081  25.9914266  -0.4601937
  29.3303276  26.8558646  -0.7443064  26.4585123  30.3349757  -4.1944919
  27.0857162  29.9526834  -3.5807394  25.6013042  30.1163959  -3.8289226
  30.8212994  31.0950728  -0.3451058  30.7209721  32.0445085  -0.4138966
  30.6034536  30.7668967  -1.2174987  26.7949389  28.4659268  -2.1279553
  27.6580851  28.1096073  -1.9176229  26.2214800  28.1273163  -1.4404149
  54.5779418  54.5779418  54.5779418 109.4712190 109.4712190 109.4712190
