default_name
 11997
  25.9165151  23.4897697  24.7678525  25.6673151  22.4287854  24.7501965
  24.5851801  22.3100620  24.6955427  26.0391983  21.9525408  25.6573860
  26.2969749  21.7351657  23.5405187  26.9820707  22.3726486  22.7418139
  26.2336375  22.0270716  24.8356203  25.6657559  21.4643208  25.4528087
  26.9314496  23.1783883  25.3960863  27.3915008  23.7603132  24.5969029
  25.9515910  24.0920695  26.1347337  25.3506376  24.5981112  25.3791703
  25.3092292  23.4541703  26.7418219  26.6200968  25.1207822  27.0186489
  26.5239325  25.0440163  28.4018613  25.9616739  24.2328121  28.8407259
  27.1327935  25.9811240  29.2150232  27.0468621  25.9028742  30.2881806
  27.8494638  27.0121107  28.6462138  28.4571910  27.9472834  29.4523778
  28.8661533  28.6213535  28.8869254  27.9600993  27.1118547  27.2728803
  28.5208110  27.9197159  26.8253305  27.3466807  26.1693234  26.4701017
  27.4290007  26.2398598  25.3953752  28.0382720  22.7234973  26.3409902
  29.2154204  22.9942027  26.1012878  27.6505029  22.0346256  27.4096819
  26.6705723  21.8384654  27.5558203  28.6033708  21.5844607  28.4173765
  29.4783768  21.1490489  27.9352977  29.0781400  22.7631874  29.2697647
  28.4067613  23.6060198  29.1054984  29.0441117  22.4714494  30.3194461
  30.4011650  23.1395598  28.9269095  30.8652900  23.2705666  29.7346243
  27.9764061  20.5147347  29.3047470  26.7585967  20.4863325  29.4831808
  28.8147586  19.6430621  29.8553667  30.1358663  19.3148575  29.3962640
  30.8035834  20.1370646  29.6536152  30.1046066  19.1983354  28.3129615
  30.4928188  18.0493727  30.0929004  31.5488082  18.0868781  30.3604424
  30.3208045  17.2171239  29.4103504  29.6284916  17.9331541  31.3023820
  30.1071171  18.4891919  32.1085077  29.3697754  16.9344813  31.6542600
  28.3672832  18.6673216  30.8414302  27.5667530  18.0552930  30.4238570
  27.8217450  19.3692805  32.0801230  26.8245444  18.9359044  32.6568908
  28.4821988  20.4516714  32.4790725  29.3047151  20.7541116  31.9769807
  28.0726799  21.2095342  33.6544053  27.4617995  20.5847985  34.3069506
  29.2885694  21.6896913  34.4691341  29.9005647  20.8318087  34.7489508
  30.1407229  22.6407889  33.6428153  29.5441841  23.5060788  33.3538267
  30.9953657  22.9702852  34.2336765  30.4941531  22.1285440  32.7479450
  28.8397156  22.3637614  35.6517167  28.4106969  21.7199018  36.1862002
  27.2361191  22.4184091  33.2468989  27.4085026  22.9567586  32.1532642
  26.3354794  22.8339168  34.1311813  26.2266474  22.3451841  35.0083331
  25.4544244  23.9615527  33.8545202  24.8133075  23.7347244  33.0023746
  24.5494928  24.2424567  35.0566586  24.8662134  23.6111409  35.8868559
  24.6563846  25.2904873  35.3364907  23.1934070  23.9721652  34.7489204
  23.1024857  24.0571162  33.8165971  26.2688100  25.2041063  33.5101838
  27.4072241  25.3479255  33.9566078  25.6779619  26.0924124  32.7179490
  24.3182004  26.1844306  32.2640392  23.6715595  26.0041260  33.1227860
  24.1644740  25.3999506  31.5230545  24.1421744  27.5491997  31.6915488
  23.7984805  28.2372986  32.4638788  23.4156046  27.5230784  30.8794434
  25.4928762  27.9290931  31.1854741  25.6594435  29.0058641  31.1551664
  25.7370056  27.4967420  30.2151273  26.3653719  27.2983502  32.2722693
  27.3092066  27.0342931  31.7951058  26.6772996  28.2051231  33.4584505
  26.0357815  29.2396695  33.6400060  27.6634196  27.8087183  34.2572644
  28.2816844  27.0655110  33.9648763  27.8573344  28.3885641  35.5804004
  26.9347458  28.8604930  35.9191914  28.2251709  27.3026970  36.5932898
  29.1482014  26.8216622  36.2696860  28.3812989  27.7704673  37.5653572
  27.1977100  26.3318069  36.6961125  26.8119463  26.2513951  35.8429922
  28.9435829  29.4576936  35.5406336  29.7773321  29.4674332  34.6343437
  28.9257179  30.3503335  36.5247900  28.1207880  30.4157763  37.1313413
  30.0265285  31.2827329  36.7342497  29.8420744  31.8838342  37.6249482
  31.3386149  30.5236683  36.9474828  31.6979033  30.2195215  35.9643726
  32.0481189  31.2207091  37.3933957  31.2043812  29.3062816  37.8332931
  30.3984413  29.3310618  38.9647474  29.8646470  30.2382845  39.2030679
  30.2726240  28.2206421  39.7776041  29.6404092  28.2619273  40.6524241
  30.9579916  27.0670524  39.4659568  30.8356443  25.9595140  40.2725960
  31.0485085  25.1708736  39.7489615  31.7669359  27.0148069  38.3466116
  32.3043108  26.1111796  38.1008580  31.8851323  28.1308035  37.5404496
  32.5148178  28.0994907  36.6638536  30.1571220  32.2306651  35.5467078
  29.7241256  33.3809636  35.6161735  30.7525737  31.7386822  34.4655070
  30.9934093  30.7586959  34.4239810  31.1165451  32.5883911  33.3377638
  30.3838156  33.3868790  33.2218266  32.4818951  33.2372579  33.5750469
  32.4253431  33.8519310  34.4734222  33.2223236  32.4505357  33.7197325
  32.8600904  34.0445658  32.4738715  32.5216730  33.6300188  31.7018991
  31.1376475  31.7803267  32.0457543  32.0829532  31.0335813  31.7902752
  30.0931641  31.9357672  31.2382850  28.8407292  32.5788308  31.5274646
  29.0049197  33.6514583  31.4244496  28.5979932  32.3468911  32.5644710
  27.8167348  32.0621917  30.5746984  27.0715671  32.8183256  30.3275431
  27.3173324  31.1720930  30.9573507  28.6677082  31.7297788  29.3949730
  28.7610682  32.6567355  28.8291690  28.2597814  30.9509547  28.7506684
  30.0382866  31.3038245  29.9251765  30.1818246  30.2281616  30.0237268
  31.1434939  31.8444799  29.0255919  31.0017640  32.9163920  28.4372093
  32.2388561  31.0975114  28.9267749  32.2523291  30.1672783  29.3199470
  33.4511582  31.5958937  28.2893232  33.2142922  32.0077035  27.3078426
  34.1087706  32.7124158  29.1210001  33.3612158  33.4650714  29.3741016
  34.6812936  32.1480452  30.4119522  35.4315004  31.3927873  30.1776983
  35.1421528  32.9510119  30.9872367  33.8811520  31.6952603  30.9974946
  35.1612061  33.3205419  28.3623546  34.7833691  34.0524204  27.9081046
  34.4542831  30.4640507  28.0909472  35.1192039  30.3913251  27.0583305
  34.5544011  29.5881830  29.0860005  33.9098117  29.6307616  29.8623966
  35.6078520  28.5810151  29.1167935  36.3577387  28.8025756  28.3577211
  36.3075233  28.5799188  30.4778985  35.5738107  28.8182406  31.2479426
  36.7149929  27.5855408  30.6603295  37.3556321  29.5334071  30.5131549
  38.0655065  29.1781968  30.0105030  35.0348497  27.1992670  28.8206036
  34.3048708  26.6380258  29.6377940  35.3705393  26.6629624  27.6527008
  35.9816306  27.3288317  26.5348965  37.0015285  27.5795234  26.8265508
  35.4191511  28.2455644  26.3579308  35.9312268  26.3968748  25.3708970
  36.8715562  26.4338341  24.8208844  35.1115410  26.6715668  24.7069987
  35.7029311  25.0497428  25.9695775  36.6800313  24.6096664  26.1688435
  35.1193674  24.3710438  25.3475480  34.9709578  25.3093211  27.2876325
  33.8869099  25.2539093  27.1909276  35.3960812  24.3177431  28.3660565
  34.8260554  23.2323276  28.4761646  36.3966125  24.7004302  29.1524576
  36.8853498  25.5639591  28.9639025  36.8491773  23.8796283  30.2695276
  37.4267364  23.0318007  29.8998037  37.7545516  24.6914971  31.1981757
  37.1526262  25.4476784  31.7021351  38.1882150  24.0199086  31.9391243
  38.8798304  25.3842864  30.4547623  38.6523639  26.0645629  29.4549714
  40.1029068  25.2131717  30.9435423  40.8910570  25.6514462  30.4887515
  40.2391935  24.6455646  31.7677685  35.6571672  23.3315418  31.0466171
  35.6738343  22.1823271  31.4877223  34.6314686  24.1601523  31.2096025
  34.6682517  25.0904565  30.8180921  33.4563543  23.7826733  31.9847946
  33.2941888  22.7066739  31.9154722  33.6557170  24.1295056  33.4619340
  32.8481109  23.6529821  34.0176291  34.6096279  23.7005476  33.7687713
  33.6559854  25.6144198  33.7476520  34.8361434  26.3467394  33.7217820
  35.7599358  25.8358278  33.4934622  34.8432568  27.7032069  33.9820324
  35.7717252  28.2539356  33.9565524  33.6591803  28.3465153  34.2726444
  33.6609345  29.6977665  34.5326332  34.5394205  29.9466297  34.8607985
  32.4713701  27.6427915  34.3055656  31.5424554  28.1451897  34.5333539
  32.4766731  26.2855433  34.0435195  31.5518215  25.7273844  34.0666097
  32.2123186  24.4804972  31.4456556  31.1394272  23.8815356  31.3778318
  32.3677879  25.7449778  31.0665407  33.2713969  26.1888342  31.1476677
  31.2491894  26.5394110  30.5725364  30.4785069  25.8846862  30.1655058
  30.6214381  27.3477831  31.7099562  31.4154752  27.6942157  32.3714611
  30.1040295  28.2070150  31.2832141  29.7018534  26.5616563  32.4477106
  29.6686510  25.7182644  32.0323834  31.7085652  27.4725965  29.4572697
  32.1547898  28.5897561  29.7214082  31.5955466  27.0063359  28.2180874
  30.9269428  25.7853222  27.8603606  29.9898744  25.7205714  28.4133619
  31.5644326  24.9422682  28.1267544  30.7170451  25.8959774  26.3910402
  29.6993528  26.2382063  26.2032085  30.8594422  24.9150208  25.9376656
  31.7235871  26.8713720  25.8776653  31.2675916  27.4146211  25.0499893
  32.6738035  26.4470263  25.5534447  31.9502293  27.8173395  27.0585382
  32.9763301  28.1724813  27.1516317  31.0393279  29.0364280  26.9611997
  30.1868262  29.2494720  27.8230734  31.2286113  29.8278906  25.9100167
  31.8941700  29.5683571  25.1960326  30.5211777  31.0943921  25.7677466
  30.7904109  31.7660882  26.5832837  30.8811279  31.7965834  24.4452308
  31.9586949  31.7426473  24.2862777  30.1869953  31.1148999  23.2750237
  29.1071501  31.1587587  23.4168350  30.4521714  31.6236206  22.3482098
  30.5037810  30.0733659  23.2206703  30.4737231  33.1692090  24.5036629
  30.1601151  33.3978699  23.6469907  29.0132222  30.8730249  25.8220485
  28.5232936  29.8144851  25.4296030  28.2898750  31.8770701  26.3080948
  28.7479078  32.6691535  26.7357736  26.8320028  31.8516538  26.2838097
  26.4673260  30.9302178  26.7384342  26.2630269  33.0243899  27.0861753
  25.2095657  33.1424123  26.8324244  26.3572946  32.7988769  28.1484170
  26.9560295  34.2256347  26.7953622  26.7289767  34.4654627  25.9152914
  26.3201066  31.9020263  24.8486481  26.4403221  32.9267486  24.1774302
  25.7533449  30.7915947  24.3891138  25.4000840  29.6707086  25.2154200
  24.6912838  30.0064621  25.9723692  26.3019738  29.2995039  25.7021447
  24.8088923  28.6747781  24.2804768  23.7764712  28.4984222  24.5823119
  25.3761455  27.7482492  24.3691858  24.8858264  29.2155699  22.8916804
  23.9000371  29.1194160  22.4366279  25.6219445  28.6998097  22.2750596
  25.2570356  30.6941622  23.0207333  26.0499718  30.9472760  22.3178403
  24.1061048  31.6695099  22.8003246  24.1232935  32.4510188  21.8493681
  23.1126348  31.6142358  23.6817774  23.1003576  30.8877313  24.3833042
  21.9988169  32.5550946  23.6410883  22.3352178  33.5133804  23.2450178
  20.8904138  32.0335945  22.7254911  20.7362191  30.9746149  22.9325790
  19.9734985  32.5825127  22.9400957  21.2335135  32.2027281  21.3606137
  21.5445886  31.3714583  21.0512065  21.4508710  32.7942821  25.0437136
  21.3197746  33.9386210  25.4768961  21.1343699  31.7094688  25.7431992
  21.2619182  30.7928036  25.3387755  20.7662934  31.8017137  26.6792069
  24.7180792  30.0050308  59.4709136  24.0442491  30.3082004  60.0794094
  25.1046614  30.8079388  59.1214593  28.6837533  27.5835791  60.7448959
  29.3788438  28.2042484  60.9636274  29.0260683  26.7331142  61.0201337
  22.7752402  27.6897543  59.6524053  22.2026369  28.3087730  59.1994524
  23.3485195  28.2396905  60.1863974  25.9949661  27.9734693  60.7832635
  26.9280335  27.9080255  60.9865510  25.9072874  28.8090960  60.3247167
  28.6237678  27.2900563  57.7436582  28.5451310  26.9560427  58.6372340
  29.4447345  27.7822331  57.7428055  26.1941630  24.6068559  57.3646561
  26.8977480  24.8118561  57.9804216  25.4704279  25.1745321  57.6295644
  28.1028327  25.0451088  59.4145021  28.9373931  24.6132286  59.2322496
  27.9412670  24.8733102  60.3421915  29.4380563  31.3435863  57.1277880
  28.5610029  31.2224663  56.7640127  29.9138316  30.5521941  56.8756769
  32.1835872  32.2800250  56.9294990  31.2767327  31.9833362  57.0057704
  32.4611853  31.9830068  56.0629276  30.9534656  29.1387185  57.0706969
  31.8153820  29.4642083  57.3302787  31.1385001  28.3518681  56.5580035
  31.9064099  26.3783228  60.3586678  31.8942769  27.3225068  60.5154949
  32.7987521  26.1953373  60.0646140  24.7180794   7.0112430  46.1954442
  24.0442492   7.3144127  46.8039400  25.1046616   7.8141511  45.8459899
  28.6837534   4.5897914  47.4694266  29.3788439   5.2104606  47.6881580
  29.0260685   3.7393265  47.7446643  22.7752403   4.6959665  46.3769359
  22.2026370   5.3149853  45.9239831  23.3485197   5.2459027  46.9109281
  25.9949663   4.9796816  47.5077941  26.9280336   4.9142377  47.7110817
  25.9072875   5.8153082  47.0492474  28.6237679   4.2962686  44.4681889
  28.5451311   3.9622550  45.3617647  29.4447346   4.7884454  44.4673361
  26.1941631   1.6130681  44.0891867  26.8977481   1.8180684  44.7049523
  25.4704280   2.1807443  44.3540951  28.1028328   2.0513211  46.1390327
  28.9373932   1.6194409  45.9567802  27.9412671   1.8795224  47.0667222
  36.7312604  12.5682862  56.2345504  37.3691014  12.4489609  55.5308844
  36.6133446  13.5163706  56.2933456  29.3989126  14.3745766  52.1603920
  28.8353991  14.2835703  51.3920208  29.2841521  13.5545671  52.6406412
  34.9788684  18.0416734  47.4718385  34.3276664  18.6270814  47.0852398
  35.7733047  18.5722929  47.5313422  28.9044311  15.1305871  47.8705519
  29.6775187  14.5834858  47.7318395  29.2569710  15.9950120  48.0819980
  31.2410589  11.2898537  45.5023969  31.4936110  10.7680058  44.7407432
  30.3035148  11.1264683  45.6050653  36.2853872  10.2934315  53.3098712
  37.0716961   9.8753739  52.9589129  36.5492576  11.1980408  53.4780361
  36.4563949  15.7307166  48.0087369  35.8209782  15.8041792  48.7208274
  36.1261356  16.3200765  47.3306448  30.9606878  13.1926643  47.7048344
  30.8443136  12.5171546  48.3729428  31.0709138  12.7059017  46.8880497
  33.3038419  12.6536790  51.4095033  32.9396626  12.1267411  52.1207955
  34.1605535  12.2635259  51.2361519  32.9443906   7.6826690  46.4056382
  33.1118308   8.5506926  46.7726853  32.7541075   7.8453972  45.4817671
  32.9233127  10.1384347  47.3903048  32.8032752  10.5841398  48.2288529
  32.2285715  10.4869665  46.8316587  30.6840019  22.9087989  51.0393180
  30.6064049  23.8595814  51.1181660  30.0801662  22.5633862  51.6968106
  38.6218193  10.6105821  48.2183383  39.5336049  10.8433207  48.0431080
  38.1127840  11.1942865  47.6558461  37.2287775  15.5931639  55.6096964
  36.5996638  15.7577353  54.9073032  36.8413437  16.0073249  56.3807928
  41.1077007  16.5286077  52.9641328  40.4228045  16.9084978  52.4138361
  41.1920856  17.1381404  53.6973275  32.7815737  15.3306047  52.8747049
  33.2454083  15.6093750  52.0851672  32.5172535  14.4289492  52.6920140
  31.7184623  11.4529199  49.6836614  32.4208667  11.9050243  50.1510541
  31.3865252  10.8113018  50.3116507  32.9578388  18.2670142  49.7598719
  32.8224063  19.1121678  50.1883567  33.4988200  18.4689420  48.9964653
  26.4107785  15.7845580  50.3326645  26.9232306  16.5788830  50.4832209
  27.0630498  15.0871871  50.2660246  28.2202670  18.9011336  52.4149398
  28.3969298  19.8229301  52.2270382  29.0159503  18.5869756  52.8443777
  24.3756702  14.1134234  51.1086215  25.2131924  14.5231243  50.8919923
  24.5534970  13.1733677  51.0786409  36.2721134  11.7809315  46.7970048
  35.7567758  12.5513920  47.0358435  35.9998443  11.1074451  47.4203109
  41.2455408  14.5341670  48.7323221  40.4684851  14.1952829  48.2878384
  41.9246889  14.5394293  48.0578187  36.0607437   9.6536407  48.6229829
  35.7557573   9.9682556  49.4739972  37.0137879   9.7317827  48.6657162
  34.5053869  15.8126630  50.2722783  33.9775231  15.0779390  49.9596021
  34.0041372  16.5901307  50.0262751  39.4846715  14.0075651  55.3889829
  38.8270390  14.6974912  55.4769958  40.2887114  14.3972083  55.7323816
  38.2952174  12.3620024  53.4393771  38.8084056  12.9950016  53.9415481
  38.9453398  11.7621219  53.0737131  29.5642184   8.5050758  46.6525280
  28.7279496   8.8425444  46.9734555  29.4246953   8.3699738  45.7152417
  32.6506469  13.6306841  43.2757756  31.7433531  13.3996094  43.4748905
  33.1477501  12.8344460  43.4631738  35.5574548  22.3404348  46.1954442
  34.8836247  22.6436045  46.8039400  35.9440370  23.1433428  45.8459899
  35.5568053  11.2360895  50.8154792  36.3039871  11.7482292  50.5061914
  35.8259642  10.9144948  51.6759186  33.8294703  13.7319436  47.7981746
  32.9205922  13.4478468  47.8954216  33.8589787  14.1518514  46.9385053
  39.0613970  17.3426025  51.5672914  38.6076297  16.5016935  51.6238104
  38.4307937  17.9787423  51.9047694  38.0046890   8.2718011  52.7973581
  37.2669646   7.7595397  53.1283824  38.2573663   7.8318393  51.9856858
  37.5046909  19.1802522  52.5022732  37.7969884  19.7407579  51.7835098
  38.0145530  19.4731083  53.2575891  33.5270791  15.2728179  45.1369825
  33.0890220  14.5564038  44.6775462  34.2681231  15.5004294  44.5754916
  30.3171957   9.9625116  51.6581920  29.5039822  10.2619287  52.0647113
  30.8130951   9.5680805  52.3756403  32.4680535  19.9582873  53.5916185
  32.4256713  20.1843719  52.6624717  33.3843233  19.7246247  53.7401986
  41.6443905  13.5485376  51.1946143  41.5061804  13.7386972  50.2667333
  41.2880124  14.3104759  51.6514195  30.5846335  16.8345902  53.3878148
  31.3786934  16.3396222  53.1860723  29.8738028  16.3063765  53.0245853
  35.4041180  19.2163997  57.7390516  35.4578202  19.7854934  58.5068231
  34.5355961  19.3865882  57.3744553  26.8929099  10.9788984  49.4637901
  25.9626687  10.9173439  49.6807863  26.9886571  10.4564936  48.6674542
  33.7565763  22.5084020  48.4101522  33.9317519  22.0372064  49.2247144
  33.0698551  23.1349787  48.6382782  34.7122826  16.7856527  54.4564823
  34.3772659  16.7457297  55.3522473  34.2126772  16.1201243  53.9835233
  37.6482018  14.1312561  44.7301882  37.0311189  13.4059389  44.6334935
  37.1798507  14.8921921  44.3868957  28.3226849  25.6573383  55.1841382
  28.5623447  26.2891907  55.8620400  27.4796045  25.3061423  55.4706741
  29.4380564   8.3497985  43.8523187  28.5610030   8.2286786  43.4885433
  29.9138317   7.5584064  43.6002075  32.8354710  21.4652506  57.5882886
  32.7624882  22.2707477  58.1002190  32.3932104  21.6644471  56.7630907
  32.6244490  20.7024276  51.0985707  31.8412012  21.2445956  51.1923932
  33.3237235  21.2198255  51.4979948  35.2953394  21.3639340  59.7441044
  36.0081366  21.9986804  59.6716946  34.8043423  21.4603206  58.9281046
  37.0170921  15.2690592  51.3158336  36.0827200  15.3892055  51.1463040
  37.1947589  14.3663059  51.0518346  40.4043472  11.1107912  51.8508370
  40.8703924  11.9435903  51.7768673  40.8550973  10.6452893  52.5553629
  38.4719703  17.4551733  48.8494522  38.7479547  17.3408327  49.7588396
  37.6024202  17.0569218  48.8106695  35.1073767  21.7038084  52.4927336
  35.2896162  20.8859740  52.9555088  35.9306753  21.9205776  52.0552226
  35.4415933  20.6306269  49.7542384  35.9703699  20.1198723  49.1412546
  35.7044152  20.3148799  50.6187917  28.7971681  21.6821386  52.5140160
  28.1282056  22.1667513  52.0304200  28.6584550  21.9290606  53.4283539
  32.9376949  23.7165129  59.1122819  33.4895257  23.8796751  59.8771904
  33.2783143  24.3069567  58.4402843  24.1659258   9.9439840  49.2936092
  24.4612699   9.0350519  49.2403146  23.2647294   9.9227580  48.9717095
  36.0745337  21.6647105  56.0986501  35.9496476  20.8636844  55.5897446
  36.7324428  22.1593298  55.6100471  38.1380245  19.4656125  57.7266051
  37.1910581  19.3461476  57.6544378  38.4863018  18.5778623  57.8092312
  35.1426678  19.2608841  53.9270403  34.9951641  18.3325548  54.1077973
  35.9680172  19.2828932  53.4427478  29.0088923   7.9126908  49.7850895
  29.3484995   8.4412829  49.0629504  29.4561043   8.2507314  50.5609462
  38.7460800  20.0837400  55.0135276  39.6707348  19.8780261  54.8759727
  38.5776104  19.8353801  55.9224617  30.9957070   6.4101530  47.9844188
  31.7165432   6.7882782  47.4807905  30.3722374   7.1290406  48.0879166
  35.1388193   7.1146679  48.9202520  35.3551807   7.9971316  48.6191348
  34.6582260   6.7232892  48.1908162  38.5356116  20.6023067  50.3697367
  38.7092994  20.0369490  49.6171220  39.0285008  21.4023962  50.1876857
  39.5231289  19.9189831  47.4694266  40.2182194  20.5396524  47.6881580
  39.8654439  19.0685183  47.7446643  41.4222712  17.3689537  48.9981596
  41.9474036  17.7076810  48.2730916  41.3345065  16.4336552  48.8144731
  33.1063373  23.4361520  53.3576850  32.6668363  22.9437899  54.0509706
  33.8571490  22.8934488  53.1168925  25.5855712  19.6273061  53.3601478
  26.4113732  19.3276833  52.9800121  25.2349764  18.8580684  53.8091266
  30.5537245  18.9799529  55.4299151  29.9317254  18.3170234  55.1301379
  31.2242112  19.0060661  54.7472799  30.1150752  17.5303453  48.9057612
  30.2638872  18.2138917  48.2524284  30.9217195  17.5108543  49.4207067
  27.8703385  13.5568630  49.9118681  27.6249427  12.6530960  50.1098891
  28.0399299  13.5585781  48.9698159  27.1399032   9.2896988  47.4104842
  26.4468277   9.3641343  46.7544878  26.8950784   8.5257332  47.9326359
  33.6146157  20.0251583  46.3769359  33.0420124  20.6441770  45.9239831
  34.1878951  20.5750945  46.9109281  36.8343417  20.3088733  47.5077941
  37.7674090  20.2434295  47.7110817  36.7466630  21.1445000  47.0492474
  39.4631434  19.6254604  44.4681889  39.3845065  19.2914467  45.3617647
  40.2841101  20.1176372  44.4673361  33.9992956  11.3612396  43.7185412
  34.9452061  11.2318604  43.7873830  33.6207201  10.6227058  44.1954840
  32.1835873   9.2862372  43.6540297  31.2767328   8.9895485  43.7303010
  32.4611854   8.9892190  42.7874583  30.9534658   6.1449307  43.7952276
  31.8153822   6.4704206  44.0548093  31.1385002   5.3580803  43.2825342
  39.1067294   5.0177834  50.9387499  38.5265963   5.6762638  50.5565551
  38.8403227   4.1955179  50.5274917  37.8892172   7.1777924  49.9943847
  37.0018027   7.4627575  49.7764042  38.3046161   7.0171688  49.1471124
  25.8976423  21.7585675  55.0815292  25.7630890  20.9986076  54.5153290
  25.4808485  22.4826575  54.6144081  37.0335386  16.9422599  44.0891867
  37.7371236  17.1472602  44.7049523  36.3098034  17.5099361  44.3540951
  37.8633196  12.6932460  50.2094137  37.8068397  13.1501012  49.3701770
  38.4161538  11.9323145  50.0316980  29.0545548  22.6554992  55.2933735
  28.9377933  23.6000425  55.1912425  28.2337995  22.3528554  55.6819534
  38.9422083  17.3805128  46.1390327  39.7767687  16.9486327  45.9567802
  38.7806426  17.2087142  47.0667222  38.5967975  13.8837242  47.5046667
  38.5416779  13.7181513  46.5635111  37.9714030  14.5913274  47.6608856
  31.9064101   3.3845351  47.0831985  31.8942770   4.3287190  47.2400256
  32.7987522   3.2015496  46.7891446  30.0800063  23.3083254  58.5089663
  30.9827309  23.3406865  58.8256158  29.8537433  22.3783705  58.5235999
  31.8353665  22.0614241  55.1699742  30.8849296  22.0616103  55.0564114
  32.1386151  21.3146975  54.6535776  40.2382880  29.7037684  52.1603920
  39.6747745  29.6127621  51.3920208  40.1235275  28.8837588  52.6406412
  37.7847312  31.1988875  54.9988140  38.5768604  30.8579700  54.5834440
  38.0243962  31.3083850  55.9190294  45.8182439  33.3708652  47.4718385
  45.1670419  33.9562732  47.0852398  46.6126802  33.9014846  47.5313422
  39.7438066  30.4597789  47.8705519  40.5168942  29.9126776  47.7318395
  40.0963465  31.3242038  48.0819980  42.0804344  26.6190455  45.5023969
  42.3329864  26.0971976  44.7407432  41.1428903  26.4556600  45.6050653
  47.1247627  25.6226233  53.3098712  47.9110716  25.2045656  52.9589129
  47.3886331  26.5272325  53.4780361  47.2957704  31.0599083  48.0087369
  46.6603537  31.1333710  48.7208274  46.9655110  31.6492682  47.3306448
  41.8000632  28.5218561  47.7048344  41.6836891  27.8463464  48.3729428
  41.9102892  28.0350935  46.8880497  44.1432173  27.9828708  51.4095033
  43.7790381  27.4559329  52.1207955  44.9999289  27.5927177  51.2361519
  43.7837660  23.0118608  46.4056382  43.9512063  23.8798844  46.7726853
  43.5934829  23.1745889  45.4817671  39.9925475  27.9249383  54.1058916
  39.0675972  27.7925597  54.3136608  40.2409888  28.7043603  54.6028859
  43.7626881  25.4676265  47.3903048  43.6426506  25.9133316  48.2288529
  43.0679470  25.8161583  46.8316587  37.3534286  27.5682657  54.9402705
  37.4826667  27.8217136  55.8542117  36.6731737  28.1610365  54.6207361
  49.4611947  25.9397738  48.2183383  50.3729804  26.1725125  48.0431080
  48.9521594  26.5234782  47.6558461  43.6209492  30.6597965  52.8747049
  44.0847837  30.9385668  52.0851672  43.3566290  29.7581409  52.6920140
  42.5578378  26.7821117  49.6836614  43.2602421  27.2342161  50.1510541
  42.2259006  26.1404936  50.3116507  36.3003712  25.0404670  54.9853748
  35.5102766  25.2962198  54.5093858  36.7914959  25.8553008  55.0905788
  38.2518457  25.4049249  51.9437224  37.4549620  25.5167943  52.4620720
  38.0244049  25.7435901  51.0778115  34.5841415  25.2935160  57.4168739
  34.8349453  26.1782170  57.6826315  35.1200963  25.1139762  56.6443830
  43.7972142  33.5962060  49.7598719  43.6617817  34.4413595  50.1883567
  44.3381955  33.7981337  48.9964653  37.2501540  31.1137498  50.3326645
  37.7626060  31.9080748  50.4832209  37.9024253  30.4163788  50.2660246
  39.0596424  34.2303254  52.4149398  39.2363053  35.1521219  52.2270382
  39.8553258  33.9161673  52.8443777  35.2150456  29.4426152  51.1086215
  36.0525678  29.8523160  50.8919923  35.3928724  28.5025594  51.0786409
  47.1114889  27.1101233  46.7970048  46.5961512  27.8805837  47.0358435
  46.8392197  26.4366369  47.4203109  44.6962000  21.9550934  51.8555286
  43.8403596  21.5657784  51.6760925  45.1088951  22.0342894  50.9955072
  42.4704032  19.5736007  55.2613028  43.3357029  19.3778815  54.9018917
  42.5381541  19.3446358  56.1882385  52.0849163  29.8633587  48.7323221
  51.3078605  29.5244747  48.2878384  52.7640644  29.8686211  48.0578187
  46.9001192  24.9828325  48.6229829  46.5951327  25.2974474  49.4739972
  47.8531634  25.0609745  48.6657162  45.3447624  31.1418548  50.2722783
  44.8168985  30.4071308  49.9596021  44.8435126  31.9193225  50.0262751
  40.0766351  21.8038214  52.6329395  40.6510103  21.5813396  51.9002588
  40.6637334  21.8726909  53.3857996  40.4035938  23.8342675  46.6525280
  39.5673251  24.1717362  46.9734555  40.2640708  23.6991655  45.7152417
  42.3789019  18.6779463  51.3604464  41.7253431  18.3628481  50.7361079
  42.3369493  18.0555204  52.0864287  43.4900224  28.9598758  43.2757756
  42.5827286  28.7288012  43.4748905  43.9871256  28.1636378  43.4631738
  46.3968303  37.6696266  46.1954442  45.7230001  37.9727962  46.8039400
  46.7834125  38.4725346  45.8459899  45.6126759  25.1661397  55.6852112
  44.6949321  25.3876344  55.5273800  46.0286903  25.2407707  54.8263819
  46.3961807  26.5652813  50.8154792  47.1433626  27.0774210  50.5061914
  46.6653397  26.2436865  51.6759186  44.6688457  29.0611353  47.7981746
  43.7599676  28.7770386  47.8954216  44.6983541  29.4810432  46.9385053
  48.8440644  23.6009929  52.7973581  48.1063401  23.0887315  53.1283824
  49.0967418  23.1610310  51.9856858  35.2376628  26.7816867  51.7796948
  35.0401027  26.1886228  51.0548015  34.6823292  26.4769078  52.4972887
  43.2173351  26.6739974  53.8991542  43.2721961  25.7213810  53.8234018
  42.4064553  26.8299413  54.3832840  44.3664545  30.6020097  45.1369825
  43.9283975  29.8855956  44.6775462  45.1074986  30.8296212  44.5754916
  41.1565711  25.2917034  51.6581920  40.3433577  25.5911204  52.0647113
  41.6524705  24.8972722  52.3756403  52.4837660  28.8777294  51.1946143
  52.3455558  29.0678890  50.2667333  52.1273879  29.6396677  51.6514195
  40.6479786  22.8635389  57.2743155  41.2879165  22.7224148  56.5766119
  39.8157316  22.5769903  56.8981757  41.4240090  32.1637820  53.3878148
  42.2180688  31.6688140  53.1860723  40.7131782  31.6355683  53.0245853
  37.7322853  26.3080901  49.4637901  36.8020441  26.2465357  49.6807863
  37.8280325  25.7856854  48.6674542  37.6508402  22.8335714  52.0516142
  37.9115220  23.7481047  51.9425303  38.4725575  22.3660157  52.2012755
  39.1233328  24.2473471  59.2214967  39.7956381  24.0390833  58.5727616
  38.2963114  24.0495557  58.7820199  44.5959518  37.8375938  48.4101522
  44.7711273  37.3663981  49.2247144  43.9092306  38.4641704  48.6382782
  48.4875773  29.4604479  44.7301882  47.8704943  28.7351307  44.6334935
  48.0192261  30.2213839  44.3868957  40.2774319  23.6789903  43.8523187
  39.4003785  23.5578704  43.4885433  40.7532072  22.8875981  43.6002075
  31.7976459  28.4667063  53.9464694  32.4847499  28.1528793  53.3585709
  31.6424587  29.3708427  53.6731945  36.6011181  23.3557259  58.3749718
  36.5169370  22.7482929  57.6400127  35.7793887  23.8466278  58.3759214
  46.7734895  21.8410823  53.7419913  47.2703594  21.0880785  53.4220983
  46.0021876  21.8775139  53.1763122  47.8564675  30.5982510  51.3158336
  46.9220954  30.7183972  51.1463040  48.0341344  29.6954977  51.0518346
  43.3569863  23.9828206  53.4691597  42.9867651  23.4299246  54.1572503
  43.8528956  23.3786339  52.9166597  51.2437227  26.4399829  51.8508370
  51.7097679  27.2727821  51.7768673  51.6944727  25.9744811  52.5553629
  49.3113458  32.7843651  48.8494522  49.5873302  32.6700245  49.7588396
  48.4417957  32.3861135  48.8106695  31.3744435  26.5467656  56.2182161
  31.4128534  26.0131247  57.0119279  30.8684728  26.0202862  55.5993138
  38.7535197  21.3932197  59.7144703  38.8176524  22.2547027  59.3022101
  38.6902317  20.7806198  58.9817062  35.0053012  25.2731758  49.2936092
  35.3006453  24.3642437  49.2403146  34.1041048  25.2519498  48.9717095
  38.5347259  23.3487755  55.2763641  37.8133845  23.9623722  55.1371114
  39.3240515  23.8845520  55.1980287  36.7340854  22.9545856  49.4175418
  36.4053560  22.0743235  49.2350523  37.0880225  22.8993525  50.3051807
  39.8482677  23.2418826  49.7850895  40.1878750  23.7704747  49.0629504
  40.2954798  23.5799232  50.5609462  41.8350824  21.7393447  47.9844188
  42.5559187  22.1174700  47.4807905  41.2116128  22.4582324  48.0879166
  45.9781947  22.4438596  48.9202520  46.1945562  23.3263234  48.6191348
  45.4976014  22.0524810  48.1908162  40.7181169  25.4024309  55.4973265
  40.5725749  25.7164612  56.3897546  40.2406372  26.0209210  54.9444164
  42.5777551  22.3926857  55.5454154  42.5639120  21.4967951  55.2086452
  43.2949980  22.3997521  56.1792441  35.1926831  27.9429654  58.4360926
  34.6480299  28.7189462  58.5681200  36.0706181  28.2900458  58.2780048
  41.9814447  21.2741238  50.8141725  42.1030359  20.3457884  51.0132612
  41.6916490  21.2879924  49.9020040  44.8505638  18.9596148  53.9508444
  44.8727335  19.0235481  52.9960424  45.2673697  18.1200657  54.1448951
  50.3625043  35.2481749  47.4694266  51.0575948  35.8688442  47.6881580
  50.7048194  34.3977100  47.7446643  52.2616467  32.6981455  48.9981596
  52.7867791  33.0368727  48.2730916  52.1738819  31.7628470  48.8144731
  36.4249466  34.9564979  53.3601478  37.2507486  34.6568751  52.9800121
  36.0743518  34.1872601  53.8091266  34.6258071  32.8751305  54.3190411
  33.7889980  32.4473480  54.1374412  34.5981717  33.0683749  55.2561202
  40.9544506  32.8595370  48.9057612  41.1032627  33.5430835  48.2524284
  41.7610950  32.8400460  49.4207067  38.7097139  28.8860548  49.9118681
  38.4643181  27.9822878  50.1098891  38.8793054  28.8877698  48.9698159
  37.9792787  24.6188906  47.4104842  37.2862032  24.6933261  46.7544878
  37.7344539  23.8549249  47.9326359  44.4539912  35.3543501  46.3769359
  43.8813879  35.9733688  45.9239831  45.0272706  35.9042863  46.9109281
  47.6737172  35.6380651  47.5077941  48.6067845  35.5726213  47.7110817
  47.5860384  36.4736918  47.0492474  50.3025188  34.9546521  44.4681889
  50.2238820  34.6206385  45.3617647  51.1234855  35.4468289  44.4673361
  44.8386710  26.6904314  43.7185412  45.7845815  26.5610522  43.7873830
  44.4600955  25.9518975  44.1954840  43.0229627  24.6154290  43.6540297
  42.1161083  24.3187403  43.7303010  43.3005608  24.3184108  42.7874583
  33.9407568  25.9360653  54.1039343  33.6210352  25.0825962  53.8113717
  33.3940996  26.1509232  54.8597311  44.6391693  19.1591180  49.8084538
  43.8292422  18.8138265  50.1839784  45.3276110  18.8498723  50.3972150
  46.5682241  18.2369226  51.4308835  47.1213280  18.6564680  52.0898858
  46.8052328  17.3104975  51.4731791  41.7928412  21.4741225  43.7952276
  42.6547576  21.7996123  44.0548093  41.9778756  20.6872721  43.2825342
  33.8095828  29.5563565  56.0732465  33.1159299  29.1417518  55.5602419
  34.5568819  29.5984101  55.4765884  49.9461049  20.3469752  50.9387499
  49.3659718  21.0054556  50.5565551  49.6796981  19.5247096  50.5274917
  35.7232570  29.4881819  53.9498480  35.7003259  29.5869506  52.9980363
  36.0333207  30.3346969  54.2715646  48.7285927  22.5069842  49.9943847
  47.8411782  22.7919493  49.7764042  49.1439916  22.3463605  49.1471124
  47.8729140  32.2714517  44.0891867  48.5764990  32.4764519  44.7049523
  47.1491789  32.8391279  44.3540951  48.7026950  28.0224378  50.2094137
  48.6462152  28.4792929  49.3701770  49.2555293  27.2615063  50.0316980
  49.7815837  32.7097046  46.1390327  50.6161441  32.2778244  45.9567802
  49.6200180  32.5379060  47.0667222  49.4361730  29.2129159  47.5046667
  49.3810533  29.0473431  46.5635111  48.8107785  29.9205192  47.6608856
  42.7457855  18.7137268  47.0831985  42.7336525  19.6579108  47.2400256
  43.6381277  18.5307414  46.7891446  51.1168073  39.0081821  43.8523187
  50.2397539  38.8870621  43.4885433  51.5925826  38.2167899  43.6002075
  53.8623382  39.9446208  43.6540297  52.9554837  39.6479320  43.7303010
  54.1399363  39.6476026  42.7874583  52.6322167  36.8033143  43.7952276
  53.4941331  37.1288041  44.0548093  52.8172511  36.0164639  43.2825342
  53.5851610  34.0429186  47.0831985  53.5730279  34.9871026  47.2400256
  54.4775031  33.8599331  46.7891446  30.6840020  -0.0849888  37.7638486
  30.6064050   0.8657937  37.8426967  30.0801664  -0.4304016  38.4213413
  28.3226850   2.6635506  41.9086688  28.5623448   3.2954030  42.5865707
  27.4796046   2.3123546  42.1952048  32.9376951   0.7227252  45.8368125
  33.4895259   0.8858873  46.6017210  33.2783144   1.3131689  45.1648150
  25.8976424  -1.2352202  41.8060599  25.7630892  -1.9951801  41.2398597
  25.4808486  -0.5111302  41.3389388  29.0545550  -0.3382885  42.0179041
  28.9377934   0.6062548  41.9157732  28.2337996  -0.6409323  42.4064841
  30.0800064   0.3145377  45.2334970  30.9827311   0.3468987  45.5501465
  29.8537434  -0.6154172  45.2481306  40.2382881   6.7099806  38.8849226
  39.6747746   6.6189743  38.1165514  40.1235276   5.8899711  39.3651719
  37.7847313   8.2050998  41.7233447  38.5768605   7.8641823  41.3079746
  38.0243963   8.3145973  42.6435600  45.8182440  10.3770774  34.1963691
  45.1670420  10.9624855  33.8097705  46.6126803  10.9076969  34.2558729
  39.7438067   7.4659911  34.5950826  40.5168943   6.9188898  34.4563701
  40.0963466   8.3304161  34.8065287  41.5823110   8.7936294  47.8017725
  41.2912976   9.6981924  47.6864391  42.2180094   8.8352821  48.5161795
  42.5079317   6.1713142  44.3919085  43.1042889   5.9469164  43.6776048
  42.5654288   5.4297888  44.9944532  47.2957705   8.0661206  34.7332676
  46.6603538   8.1395833  35.4453580  46.9655112   8.6554805  34.0551755
  41.8000634   5.5280683  34.4293651  41.6836892   4.8525587  35.0974735
  41.9102894   5.0413057  33.6125804  44.1432175   4.9890830  38.1340340
  43.7790382   4.4621451  38.8453261  44.9999291   4.5989300  37.9606825
  46.5412995   8.4797709  44.7967519  46.2413718   9.3822748  44.6883326
  46.1964054   8.2129892  45.6488672  39.9925476   4.9311506  40.8304223
  39.0675973   4.7987720  41.0381915  40.2409890   5.7105725  41.3274165
  37.3534287   4.5744779  41.6648012  37.4826669   4.8279258  42.5787424
  36.6731739   5.1672487  41.3452667  41.5233775  15.2442029  37.7638486
  41.4457804  16.1949854  37.8426967  40.9195418  14.8987902  38.4213413
  48.0681531   7.9285679  42.3342271  47.4390393   8.0931393  41.6318338
  47.6807193   8.3427289  43.1053235  51.9470763   8.8640117  39.6886634
  51.2621801   9.2439018  39.1383668  52.0314612   9.4735444  40.4218582
  43.6209493   7.6660087  39.5992356  44.0847838   7.9447790  38.8096978
  43.3566291   6.7643532  39.4165446  40.5133574   7.2131569  42.5372119
  41.0834931   7.6418837  41.8989603  41.1041686   6.9314154  43.2356305
  36.3003713   2.0466792  41.7099054  35.5102767   2.3024321  41.2339165
  36.7914960   2.8615130  41.8151095  38.2518458   2.4111372  38.6682531
  37.4549622   2.5230066  39.1866027  38.0244050   2.7498024  37.8023422
  44.0824126   8.9356075  46.6165046  44.1468558   9.3976482  47.4523218
  43.3735050   8.3053440  46.7447356  34.5841416   2.2997283  44.1414045
  34.8349454   3.1844293  44.4071621  35.1200964   2.1201884  43.3689137
  43.7972144  10.6024182  36.4844026  43.6617818  11.4475718  36.9128874
  44.3381956  10.8043460  35.7209960  37.2501541   8.1199620  37.0571951
  37.7626062   8.9142871  37.2077516  37.9024254   7.4225911  36.9905553
  39.0596426  11.2365377  39.1394704  39.2363054  12.1583341  38.9515688
  39.8553259  10.9223796  39.5689084  38.3448782   3.2830009  49.0156868
  38.2302297   2.3815266  49.3163966  37.4893300   3.5293705  48.6641684
  40.1827741  12.7543550  45.1405047  40.7335166  12.6260614  44.3682041
  39.3439217  13.0538439  44.7899939  35.2150458   6.4488275  37.8331522
  36.0525680   6.8585283  37.6165229  35.3928725   5.5087717  37.8031716
  45.3447625   8.1480671  36.9968090  44.8168986   7.4133430  36.6841327
  44.8435128   8.9255347  36.7508058  50.3240471   6.3429691  42.1135136
  49.6664145   7.0328953  42.2015265  51.1280870   6.7326123  42.4569122
  43.4900225   5.9660881  30.0003063  42.5827287   5.7350134  30.1994212
  43.9871257   5.1698500  30.1877044  46.3968304  14.6758388  32.9199749
  45.7230003  14.9790085  33.5284707  46.7834126  15.4787469  32.5705206
  44.6688458   6.0673476  34.5227053  43.7599678   5.7832509  34.6199523
  44.6983542   6.4872554  33.6630360  49.9007726   9.6780065  38.2918220
  49.4470053   8.8370975  38.3483411  49.2701693  10.3141464  38.6293001
  48.3440665  11.5156562  39.2268039  48.6363640  12.0761619  38.5080404
  48.8539286  11.8085123  39.9821198  35.2376629   3.7878990  38.5042255
  35.0401029   3.1948351  37.7793322  34.6823293   3.4831200  39.2218194
  44.3664546   7.6082220  31.8615132  43.9283976   6.8918078  31.4020769
  45.1074987   7.8358334  31.3000223  43.3074290  12.2936913  40.3161492
  43.2650469  12.5197759  39.3870024  44.2236989  12.0600288  40.4647293
  41.4240091   9.1699942  40.1123455  42.2180690   8.6750262  39.9106030
  40.7131783   8.6417805  39.7491160  46.2434936  11.5518038  44.4635822
  46.2971958  12.1208974  45.2313538  45.3749717  11.7219923  44.0989859
  37.7322855   3.3143024  36.1883207  36.8020443   3.2527479  36.4053169
  37.8280327   2.7918977  35.3919848  45.2023035   5.7178300  46.0222754
  46.1315095   5.8689459  45.8491721  44.7814065   5.8062321  45.1671401
  44.0011367   9.7428964  43.7921292  43.8622453   9.3747749  44.6647230
  43.2125963  10.2576604  43.6205249  44.5959519  14.8438061  35.1346828
  44.7711275  14.3726104  35.9492451  43.9092307  15.4703827  35.3628089
  45.5516582   9.1210567  41.1810129  45.2166415   9.0811337  42.0767779
  45.0520528   8.4555283  40.7080540  39.5260826   4.5278197  46.7062711
  39.3880624   3.7958436  47.3074250  40.4365750   4.4387097  46.4246898
  48.4875774   6.4666601  31.4547189  47.8704945   5.7413429  31.3580242
  48.0192262   7.2275961  31.1114263  39.1620604  17.9927423  41.9086688
  39.4017203  18.6245948  42.5865707  38.3189801  17.6415463  42.1952048
  31.7976460   5.4729185  40.6710001  32.4847500   5.1590915  40.0831016
  31.6424589   6.3770550  40.3977252  43.6748466  13.8006546  44.3128192
  43.6018638  14.6061517  44.8247497  43.2325859  13.9998512  43.4876214
  43.4638246  13.0378316  37.8231014  42.6805768  13.5799996  37.9169238
  44.1630991  13.5552296  38.2225255  46.1347150  13.6993380  46.4686351
  46.8475122  14.3340845  46.3962252  45.6437178  13.7957246  45.6526353
  47.8564677   7.6044633  38.0403643  46.9220955   7.7246095  37.8708347
  48.0341345   6.7017099  37.7763652  41.1859063  11.4487823  47.2891922
  41.8868523  12.0824306  47.4421316  40.7154178  11.7902555  46.5287561
  49.3113459   9.7905773  35.5739829  49.5873303   9.6762368  36.4833703
  48.4417958   9.3923258  35.5352002  45.9467523  14.0392124  39.2172642
  46.1289918  13.2213780  39.6800395  46.7700509  14.2559816  38.7797532
  46.2809689  12.9660309  36.4787691  46.8097455  12.4552764  35.8657853
  46.5437908  12.6502839  37.3433224  36.7826781  10.9824178  44.2223024
  37.3680218  10.2367866  44.3550929  36.5851620  11.2928135  45.1059688
  39.6365437  14.0175426  39.2385467  38.9675812  14.5021553  38.7549507
  39.4978306  14.2644646  40.1528845  31.3744436   3.5529779  42.9427468
  31.4128536   3.0193369  43.7364586  30.8684729   3.0264984  42.3238445
  43.7770705  16.0519169  45.8368125  44.3289013  16.2150791  46.6017210
  44.1176899  16.6423607  45.1648150  35.0053014   2.2793881  36.0181399
  35.3006455   1.3704559  35.9648453  34.1041049   2.2581620  35.6962401
  46.9139092  14.0001145  42.8231807  46.7890232  13.1990885  42.3142753
  47.5718184  14.4947338  42.3345777  48.9774001  11.8010165  44.4511357
  48.0304336  11.6815516  44.3789684  49.3256774  10.9132663  44.5337619
  45.9820434  11.5962881  40.6515710  45.8345397  10.6679589  40.8323280
  46.8073928  11.6182972  40.1672785  49.5854556  12.4191440  41.7380582
  50.5101103  12.2134301  41.6005034  49.4169859  12.1707841  42.6469924
  49.3749872  12.9377107  37.0942674  49.5486750  12.3723530  36.3416526
  49.8678763  13.7378002  36.9122164  35.1926832   4.9491776  45.1606233
  34.6480300   5.7251584  45.2926507  36.0706182   5.2962581  45.0025354
  50.3625045  12.2543872  34.1939572  51.0575949  12.8750564  34.4126887
  50.7048195  11.4039223  34.4691950  35.9792854   4.0761673  48.0536390
  35.2374590   4.2244308  48.6401020  35.6585598   4.3369938  47.1903139
  52.2616468   9.7043577  35.7226903  52.7867792  10.0430850  34.9976223
  52.1738820   8.7690593  35.5390038  43.9236516  13.6177651  47.8516780
  44.2323643  13.3726798  48.7239479  44.7211998  13.8224289  47.3635650
  43.9457129  15.7715561  40.0822156  43.5062119  15.2791939  40.7755013
  44.6965245  15.2288528  39.8414231  36.4249467  11.9627101  40.0846784
  37.2507487  11.6630873  39.7045428  36.0743519  11.1934724  40.5336573
  41.3931001  11.3153570  42.1544458  40.7711010  10.6524275  41.8546686
  42.0635868  11.3414702  41.4718106  34.6258073   9.8813428  41.0435718
  33.7889981   9.4535602  40.8619719  34.5981718  10.0745871  41.9806509
  40.9544508   9.8657493  35.6302918  41.1032628  10.5492957  34.9769591
  41.7610951   9.8462583  36.1452374  38.7097141   5.8922671  36.6363987
  38.4643182   4.9885001  36.8344197  38.8793055   5.8939821  35.6943465
  44.4539913  12.3605623  33.1014666  43.8813880  12.9795811  32.6485138
  45.0272707  12.9104985  33.6354588  47.6737173  12.6442774  34.2323248
  48.6067846  12.5788335  34.4356124  47.5860386  13.4799040  33.7737781
  50.3025190  11.9608644  31.1927196  50.2238821  11.6268507  32.0862954
  51.1234856  12.4530412  31.1918668  33.9407569   2.9422776  40.8284650
  33.6210353   2.0888084  40.5359024  33.3940997   3.1571354  41.5842617
  37.7187477   5.6585217  44.5454156  37.9373486   6.5902325  44.5642190
  38.1313250   5.2993191  45.3308960  33.8095829   6.5625687  42.7977771
  33.1159301   6.1479640  42.2847726  34.5568820   6.6046224  42.2011190
  35.7232572   6.4943941  40.6743786  35.7003260   6.5931628  39.7225669
  36.0333208   7.3409092  40.9960952  38.3819950   8.5520096  44.7890401
  39.3363203   8.5204039  44.7220332  38.1832473   8.0910720  45.6040627
  38.9719332   7.1221212  47.3561198  39.7912221   7.6165291  47.3796036
  39.2456139   6.2053180  47.3278766  36.7370178  14.0939716  41.8060599
  36.6024646  13.3340117  41.2398597  36.3202241  14.8180616  41.3389388
  47.8729141   9.2776639  30.8137174  48.5764991   9.4826642  31.4294830
  47.1491790   9.8453401  31.0786257  39.8939304  14.9909033  42.0179041
  39.7771688  15.9354465  41.9157732  39.0731750  14.6882594  42.4064841
  49.7815839   9.7159168  32.8635634  50.6161443   9.2840367  32.6813109
  49.6200182   9.5441182  33.7912528  49.4361731   6.2191282  34.2291973
  49.3810535   6.0535553  33.2880417  48.8107786   6.9267315  34.3854163
  34.2254246   1.4559346  48.0553396  34.8713110   0.9458300  48.5440621
  34.0171397   2.1928028  48.6296821  40.9193818  15.6437295  45.2334970
  41.8221065  15.6760905  45.5501465  40.6931188  14.7137746  45.2481306
  42.6747420  14.3968281  41.8945048  41.7243051  14.3970143  41.7809421
  42.9779906  13.6501016  41.3781083  55.2189820  20.1856248  42.8952335
  54.8808332  20.0697312  42.0072870  56.0879588  19.7847413  42.8753342
  51.0776636  22.0391724  38.8849226  50.5141501  21.9481661  38.1165514
  50.9629031  21.2191629  39.3651719  48.6241068  23.5342916  41.7233447
  49.4162360  23.1933740  41.3079746  48.8637718  23.6437891  42.6435600
  50.5831822  22.7951829  34.5950826  51.3562698  22.2480816  34.4563701
  50.9357221  23.6596078  34.8065287  52.4216864  24.1228211  47.8017725
  52.1306730  25.0273842  47.6864391  53.0573849  24.1644739  48.5161795
  53.3473071  21.5005060  44.3919085  53.9436643  21.2761082  43.6776048
  53.4048043  20.7589805  44.9944532  52.9198099  18.9544495  32.2269276
  53.1723620  18.4326016  31.4652739  51.9822659  18.7910641  32.3295959
  52.6394388  20.8572601  34.4293651  52.5230646  20.1817504  35.0974735
  52.7496648  20.3704975  33.6125804  54.9825929  20.3182748  38.1340340
  54.6184136  19.7913369  38.8453261  55.8393045  19.9281217  37.9606825
  54.6231416  15.3472648  33.1301688  54.7905818  16.2152884  33.4972159
  54.4328585  15.5099930  32.2062978  50.8319231  20.2603424  40.8304223
  49.9069727  20.1279638  41.0381915  51.0803644  21.0397643  41.3274165
  54.6020637  17.8030305  34.1148355  54.4820262  18.2487356  34.9533835
  53.9073225  18.1515623  33.5561893  48.1928042  19.9036697  41.6648012
  48.3220423  20.1571176  42.5787424  47.5125493  20.4964405  41.3452667
  52.3627529  30.5733947  37.7638486  52.2851559  31.5241772  37.8426967
  51.7589173  30.2279820  38.4213413  54.4603247  22.9952005  39.5992356
  54.9241593  23.2739708  38.8096978  54.1960045  22.0935450  39.4165446
  51.3527328  22.5423487  42.5372119  51.9228685  22.9710755  41.8989603
  51.9435440  22.2606071  43.2356305  53.3972133  19.1175157  36.4081921
  54.0996177  19.5696201  36.8755847  53.0652762  18.4758976  37.0361814
  47.1397467  17.3758710  41.7099054  46.3496521  17.6316239  41.2339165
  47.6308715  18.1907048  41.8151095  49.0912213  17.7403289  38.6682531
  48.2943376  17.8521984  39.1866027  48.8637805  18.0789942  37.8023422
  54.9217880  24.2647993  46.6165046  54.9862313  24.7268400  47.4523218
  54.2128804  23.6345357  46.7447356  45.4235170  17.6289201  44.1414045
  45.6743209  18.5136210  44.4071621  45.9594719  17.4493802  43.3689137
  54.6365898  25.9316100  36.4844026  54.5011573  26.7767636  36.9128874
  55.1775711  26.1335378  35.7209960  48.0895295  23.4491538  37.0571951
  48.6019816  24.2434788  37.2077516  48.7418008  22.7517829  36.9905553
  49.8990180  26.5657294  39.1394704  50.0756808  27.4875259  38.9515688
  50.6947014  26.2515714  39.5689084  49.1842537  18.6121926  49.0156868
  49.0696052  17.7107183  49.3163966  48.3287054  18.8585623  48.6641684
  51.0221496  28.0835468  45.1405047  51.5728921  27.9552532  44.3682041
  50.1832971  28.3830357  44.7899939  46.0544212  21.7780192  37.8331522
  46.8919434  22.1877201  37.6165229  46.2322480  20.8379635  37.8031716
  55.5355755  14.2904974  38.5800593  54.6797352  13.9011824  38.4006232
  55.9482707  14.3696935  37.7200379  53.3097788  11.9090047  41.9858335
  54.1750785  11.7132855  41.6264224  53.3775297  11.6800399  42.9127691
  50.9160107  14.1392255  39.3574701  51.4903859  13.9167436  38.6247894
  51.5031089  14.2080949  40.1103303  51.2429694  16.1696716  33.3770587
  50.4067006  16.5071402  33.6979861  51.1034464  16.0345696  32.4397724
  53.2182775  11.0133504  38.0849771  52.5647187  10.6982521  37.4606386
  53.1763249  10.3909244  38.8109594  54.3293980  21.2952799  30.0003063
  53.4221041  21.0642052  30.1994212  54.8265012  20.4990418  30.1877044
  55.5082213  21.3965394  34.5227053  54.5993432  21.1124426  34.6199523
  55.5377297  21.8164472  33.6630360  46.0770383  19.1170908  38.5042255
  45.8794783  18.5240268  37.7793322  45.5217047  18.8123118  39.2218194
  54.0567107  19.0094014  40.6236848  54.1115717  18.0567851  40.5479325
  53.2458309  19.1653453  41.1078147  55.2058301  22.9374137  31.8615132
  54.7677731  22.2209996  31.4020769  55.9468742  23.1650252  31.3000223
  51.9959467  17.6271074  38.3827227  51.1827332  17.9265244  38.7892419
  52.4918461  17.2326763  39.1001709  54.1468045  27.6228831  40.3161492
  54.1044224  27.8489677  39.3870024  55.0630744  27.3892205  40.4647293
  51.4873542  15.1989429  43.9988462  52.1272921  15.0578189  43.3011425
  50.6551072  14.9123943  43.6227064  52.2633846  24.4991860  40.1123455
  53.0574444  24.0042180  39.9106030  51.5525538  23.9709723  39.7491160
  48.5716609  18.6434942  36.1883207  47.6414197  18.5819397  36.4053169
  48.6674081  18.1210894  35.3919848  48.4902158  15.1689754  38.7761449
  48.7508975  16.0835088  38.6670609  49.3119330  14.7014197  38.9258062
  49.9627083  16.5827512  45.9460273  50.6350137  16.3744874  45.2972922
  49.1356870  16.3849598  45.5065506  54.8405122  25.0720882  43.7921292
  54.7016207  24.7039666  44.6647230  54.0519718  25.5868521  43.6205249
  55.4353274  30.1729978  35.1346828  55.6105029  29.7018022  35.9492451
  54.7486062  30.7995745  35.3628089  50.3654581  19.8570115  46.7062711
  50.2274379  19.1250353  47.3074250  51.2759504  19.7679015  46.4246898
  52.9936881  19.5690074  46.1946390  53.7036500  18.9283266  46.1533009
  52.9506190  19.8202969  47.1172571  50.0014359  33.3219341  41.9086688
  50.2410957  33.9537865  42.5865707  49.1583555  32.9707381  42.1952048
  51.1168074  16.0143943  30.5768493  50.2397541  15.8932744  30.2130740
  51.5925827  15.2230021  30.3247382  42.6370214  20.8021103  40.6710001
  43.3241254  20.4882833  40.0831016  42.4818343  21.7062468  40.3977252
  47.4404937  15.6911299  45.0995024  47.3563125  15.0836969  44.3645434
  46.6187643  16.1820318  45.1004521  54.5142221  29.1298464  44.3128192
  54.4412392  29.9353435  44.8247497  54.0719614  29.3290429  43.4876214
  54.3032000  28.3670234  37.8231014  53.5199522  28.9091914  37.9169238
  55.0024745  28.8844213  38.2225255  54.1963619  16.3182246  40.1936904
  53.8261407  15.7653286  40.8817809  54.6922712  15.7140379  39.6411904
  52.0252818  26.7779741  47.2891922  52.7262277  27.4116224  47.4421316
  51.5547933  27.1194473  46.5287561  47.6220536  26.3116096  44.2223024
  48.2073973  25.5659784  44.3550929  47.4245374  26.6220053  45.1059688
  50.4759191  29.3467343  39.2385467  49.8069566  29.8313471  38.7549507
  50.3372061  29.5936564  40.1528845  42.2138191  18.8821696  42.9427468
  42.2522290  18.3485287  43.7364586  41.7078483  18.3556902  42.3238445
  54.6164460  31.3811087  45.8368125  55.1682768  31.5442708  46.6017210
  54.9570653  31.9715525  45.1648150  49.5928953  13.7286237  46.4390010
  49.6570279  14.5901068  46.0267408  49.5296073  13.1160238  45.7062368
  45.8446768  17.6085798  36.0181399  46.1400209  16.6996477  35.9648453
  44.9434804  17.5873538  35.6962401  49.3741015  15.6841795  42.0008948
  48.6527601  16.2977763  41.8616421  50.1634271  16.2199560  41.9225594
  47.5734610  15.2899896  36.1420724  47.2447316  14.4097275  35.9595830
  47.9273980  15.2347565  37.0297113  50.6876433  15.5772866  36.5096202
  51.0272505  16.1058787  35.7874810  51.1348553  15.9153272  37.2854768
  52.6744580  14.0747487  34.7089495  53.3952943  14.4528740  34.2053211
  52.0509884  14.7936364  34.8124473  51.5574924  17.7378350  42.2218572
  51.4119505  18.0518653  43.1142853  51.0800128  18.3563250  41.6689470
  53.4171307  14.7280898  42.2699461  53.4032876  13.8321991  41.9331759
  54.1343735  14.7351561  42.9037747  46.0320586  20.2783694  45.1606233
  45.4874055  21.0543502  45.2926507  46.9099936  20.6254499  45.0025354
  52.8208203  13.6095278  37.5387031  52.9424114  12.6811924  37.7377919
  52.5310245  13.6233964  36.6265347  55.6899393  11.2950188  40.6753751
  55.7121090  11.3589521  39.7205731  56.1067452  10.4554697  40.8694257
  46.8186608  19.4053590  48.0536390  46.0768344  19.5536226  48.6401020
  46.4979353  19.6661856  47.1903139  54.7630271  28.9469569  47.8516780
  55.0717397  28.7018715  48.7239479  55.5605753  29.1516207  47.3635650
  54.7850883  31.1007478  40.0822156  54.3455873  30.6083857  40.7755013
  55.5359000  30.5580446  39.8414231  47.2643222  27.2919019  40.0846784
  48.0901242  26.9922791  39.7045428  46.9137274  26.5226642  40.5336573
  52.2324755  26.6445487  42.1544458  51.6104764  25.9816192  41.8546686
  52.9029622  26.6706619  41.4718106  45.4651827  25.2105346  41.0435718
  44.6283735  24.7827520  40.8619719  45.4375472  25.4037789  41.9806509
  51.7938262  25.1949411  35.6302918  51.9426382  25.8784875  34.9769591
  52.6004706  25.1754501  36.1452374  49.5490895  21.2214588  36.6363987
  49.3036937  20.3176918  36.8344197  49.7186810  21.2231739  35.6943465
  48.8186543  16.9542946  34.1350149  48.1255788  17.0287301  33.4790185
  48.5738294  16.1903289  34.6571666  55.2933668  27.6897541  33.1014666
  54.7207635  28.3087728  32.6485138  55.8666461  28.2396903  33.6354588
  53.8623383  16.9508330  30.3785604  52.9554839  16.6541443  30.4548317
  54.1399364  16.6538148  29.5119890  44.7801324  18.2714694  40.8284650
  44.4604108  17.4180002  40.5359024  44.2334752  18.4863272  41.5842617
  48.5581231  20.9877135  44.5454156  48.7767241  21.9194242  44.5642190
  48.9707005  20.6285109  45.3308960  52.6322168  13.8095265  30.5197583
  53.4941332  14.1350164  30.7793400  52.8172512  13.0226761  30.0070648
  44.6489584  21.8917605  42.7977771  43.9553055  21.4771558  42.2847726
  45.3962575  21.9338142  42.2011190  46.5626326  21.8235859  40.6743786
  46.5397014  21.9223546  39.7225669  46.8726963  22.6701010  40.9960952
  49.2213704  23.8812014  44.7890401  50.1756958  23.8495956  44.7220332
  49.0226228  23.4202638  45.6040627  49.8113086  22.4513130  47.3561198
  50.6305975  22.9457209  47.3796036  50.0849894  21.5345098  47.3278766
  47.5763933  29.4231633  41.8060599  47.4418401  28.6632034  41.2398597
  47.1595995  30.1472533  41.3389388  50.7333059  30.3200950  42.0179041
  50.6165443  31.2646383  41.9157732  49.9125505  30.0174512  42.4064841
  45.0648000  16.7851264  48.0553396  45.7106864  16.2750218  48.5440621
  44.8565152  17.5219945  48.6296821  53.5851611  11.0491308  33.8077292
  53.5730281  11.9933148  33.9645563  54.4775033  10.8661454  33.5136753
  51.7587573  30.9729212  45.2334970  52.6614820  31.0052823  45.5501465
  51.5324943  30.0429663  45.2481306  53.5141175  29.7260199  41.8945048
  52.5636806  29.7262060  41.7809421  53.8173661  28.9792933  41.3781083
  53.4763969  36.1313021  40.6710001  54.1635009  35.8174751  40.0831016
  53.3212098  37.0354385  40.3977252  53.0531945  34.2113614  42.9427468
  53.0916045  33.6777205  43.7364586  52.5472238  33.6848819  42.3238445
  55.6195078  33.6006611  40.8284650  55.2997862  32.7471920  40.5359024
  55.0728506  33.8155189  41.5842617  52.3627530   7.5796070  24.4883793
  52.2851560   8.5303895  24.5672274  51.7589174   7.2341942  25.1458719
  50.0014360  10.3281464  28.6331995  50.2410958  10.9599988  29.3111014
  49.1583557   9.9769504  28.9197354  54.6164461   8.3873210  32.5613432
  55.1682769   8.5504831  33.3262517  54.9570654   8.9777647  31.8893457
  47.5763934   6.4293756  28.5305905  47.4418402   5.6694157  27.9643903
  47.1595996   7.1534656  28.0634694  50.7333060   7.3263073  28.7424348
  50.6165444   8.2708506  28.6403038  49.9125506   7.0236635  29.1310147
  51.7587574   7.9791335  31.9580276  52.6614821   8.0114945  32.2746771
  51.5324944   7.0491786  31.9726612  53.4763970  13.1375143  27.3955307
  54.1635010  12.8236873  26.8076322  53.3212099  14.0416508  27.1222559
  53.0531946  11.2175737  29.6672774  53.0916046  10.6839327  30.4609892
  52.5472239  10.6910942  29.0483751  55.6195079  10.6068734  27.5529957
  55.2997864   9.7534042  27.2604331  55.0728508  10.8217312  28.3087924
   3.0393285  22.3404348  46.1954439   2.3654983  22.6436045  46.8039397
   3.4259107  23.1433428  45.8459896   7.0050025  19.9189831  47.4694262
   7.7000930  20.5396524  47.6881577   7.3473176  19.0685183  47.7446640
   4.3162154  20.3088733  47.5077938   5.2492827  20.2434295  47.7110814
   4.2285366  21.1445000  47.0492471   6.9450170  19.6254604  44.4681886
   6.8663802  19.2914467  45.3617644   7.7659837  20.1176372  44.4673358
   4.5154122  16.9422599  44.0891864   5.2189972  17.1472602  44.7049520
   3.7916771  17.5099361  44.3540948   6.4240820  17.3805128  46.1390324
   7.2586423  16.9486327  45.9567799   6.2625162  17.2087142  47.0667219
  15.0525095  27.8974779  56.2345501  15.6903505  27.7781527  55.5308841
  14.9345937  28.8455623  56.2933453   7.7201617  29.7037684  52.1603917
   7.1566482  29.6127621  51.3920204   7.6054012  28.8837588  52.6406409
  13.3001175  33.3708652  47.4718382  12.6489155  33.9562732  47.0852395
  14.0945538  33.9014846  47.5313419   7.2256802  30.4597789  47.8705516
   7.9987678  29.9126776  47.7318392   7.5782201  31.3242038  48.0819977
   9.5623080  26.6190455  45.5023966   9.8148601  26.0971976  44.7407429
   8.6247639  26.4556600  45.6050649  14.6066363  25.6226233  53.3098709
  15.3929452  25.2045656  52.9589126  14.8705067  26.5272325  53.4780357
  14.7776440  31.0599083  48.0087366  14.1422273  31.1333710  48.7208271
  14.4473847  31.6492682  47.3306445  20.0074790  25.5601466  54.2131688
  20.7399962  24.9900683  54.4469517  19.2514146  25.1723067  54.6538193
   9.2819369  28.5218561  47.7048341   9.1655627  27.8463464  48.3729425
   9.3921629  28.0350935  46.8880494  11.6250910  27.9828708  51.4095030
  11.2609117  27.4559329  52.1207952  12.4818026  27.5927177  51.2361515
  11.2656397  23.0118608  46.4056379  11.4330799  23.8798844  46.7726850
  11.0753566  23.1745889  45.4817668  11.2445618  25.4676265  47.3903045
  11.1245243  25.9133316  48.2288526  10.5498206  25.8161583  46.8316584
   9.0052510  38.2379907  51.0393177   8.9276540  39.1887732  51.1181657
   8.4014153  37.8925779  51.6968103  16.9430684  25.9397738  48.2183379
  17.8548540  26.1725125  48.0431077  16.4340331  26.5234782  47.6558458
  15.5500266  30.9223557  55.6096961  14.9209129  31.0869271  54.9073029
  15.1625928  31.3365166  56.3807925  19.4289498  31.8577995  52.9641325
  18.7440536  32.2376896  52.4138358  19.5133347  32.4673321  53.6973272
  11.1028228  30.6597965  52.8747046  11.5666574  30.9385668  52.0851668
  10.8385026  29.7581409  52.6920137  10.0397114  26.7821117  49.6836611
  10.7421158  27.2342161  50.1510537   9.7077743  26.1404936  50.3116504
  17.7986258  32.3809909  57.7359026  18.6203701  31.9790096  57.4541707
  17.7948661  32.2778143  58.6875141  25.8892251  28.7248657  54.0843997
  25.1355959  28.1556056  53.9288001  26.0239792  28.6911322  55.0314632
  11.2790879  33.5962060  49.7598716  11.1436554  34.4413595  50.1883564
  11.8200691  33.7981337  48.9964650   4.7320276  31.1137498  50.3326641
   5.2444797  31.9080748  50.4832206   5.3842989  30.4163788  50.2660243
   2.6969193  29.4426152  51.1086212   3.5344415  29.8523160  50.8919920
   2.8747461  28.5025594  51.0786406  14.5933625  27.1101233  46.7970045
  14.0780249  27.8805837  47.0358432  14.3210934  26.4366369  47.4203106
  19.5667899  29.8633587  48.7323218  18.7897342  29.5244747  48.2878380
  20.2459380  29.8686211  48.0578183  14.3819928  24.9828325  48.6229826
  14.0770064  25.2974474  49.4739969  15.3350370  25.0609745  48.6657159
  12.8266360  31.1418548  50.2722780  12.2987722  30.4071308  49.9596018
  12.3253863  31.9193225  50.0262748  17.8059206  29.3367569  55.3889826
  17.1482881  30.0266830  55.4769955  18.6099605  29.7264001  55.7323813
  16.6164665  27.6911941  53.4393768  17.1296547  28.3241933  53.9415478
  17.2665889  27.0913137  53.0737128   7.8854675  23.8342675  46.6525277
   7.0491987  24.1717362  46.9734552   7.7459444  23.6991655  45.7152414
  10.9718960  28.9598758  43.2757753  10.0646022  28.7288012  43.4748902
  11.4689992  28.1636378  43.4631735  13.8787039  37.6696266  46.1954439
  13.2048738  37.9727962  46.8039397  14.2652861  38.4725346  45.8459896
  13.8780544  26.5652813  50.8154789  14.6252363  27.0774210  50.5061911
  14.1472133  26.2436865  51.6759182  12.1507194  29.0611353  47.7981743
  11.2418413  28.7770386  47.8954213  12.1802278  29.4810432  46.9385050
  17.3826461  32.6717943  51.5672911  16.9288788  31.8308853  51.6238101
  16.7520428  33.3079341  51.9047691  16.3259381  23.6009929  52.7973578
  15.5882138  23.0887315  53.1283821  16.5786154  23.1610310  51.9856855
  15.8259400  34.5094439  52.5022729  16.1182375  35.0699497  51.7835095
  16.3358021  34.8023000  53.2575888  11.8483282  30.6020097  45.1369822
  11.4102711  29.8855956  44.6775459  12.5893722  30.8296212  44.5754913
   8.6384448  25.2917034  51.6581917   7.8252313  25.5911204  52.0647110
   9.1343442  24.8972722  52.3756400  10.7893026  35.2874791  53.5916182
  10.7469204  35.5135637  52.6624714  11.7055724  35.0538165  53.7401983
  19.9656396  28.8777294  51.1946140  19.8274295  29.0678890  50.2667330
  19.6092615  29.6396677  51.6514191  19.9925776  30.9453821  56.2057412
  20.4262283  30.8529110  57.0540466  20.7057357  30.9211321  55.5677428
   8.9058826  32.1637820  53.3878145   9.6999425  31.6688140  53.1860720
   8.1950519  31.6355683  53.0245850   5.2141590  26.3080901  49.4637898
   4.2839178  26.2465357  49.6807860   5.3099062  25.7856854  48.6674539
  20.8541326  30.9877522  58.7390297  21.0477216  31.8923332  58.9849572
  20.7541944  30.5284941  59.5728882  12.0778254  37.8375938  48.4101518
  12.2530010  37.3663981  49.2247141  11.3911042  38.4641704  48.6382779
  13.0335318  32.1148444  54.4564820  12.6985150  32.0749214  55.3522470
  12.5339263  31.4493160  53.9835230  15.9694509  29.4604479  44.7301879
  15.3523680  28.7351307  44.6334932  15.5010998  30.2213839  44.3868954
   7.7593055  23.6789903  43.8523184   6.8822521  23.5578704  43.4885430
   8.2350808  22.8875981  43.6002072  10.9456981  36.0316193  51.0985704
  10.1624503  36.5737873  51.1923929  11.6449726  36.5490173  51.4979945
  22.1083389  27.5451188  55.3838201  22.0973265  28.4275904  55.0132134
  21.2400768  27.1922739  55.1892738  15.3383412  30.5982510  51.3158333
  14.4039691  30.7183972  51.1463037  15.5160080  29.6954977  51.0518343
  18.7255963  26.4399829  51.8508367  19.1916415  27.2727821  51.7768670
  19.1763464  25.9744811  52.5553626  16.7932194  32.7843651  48.8494519
  17.0692038  32.6700245  49.7588393  15.9236693  32.3861135  48.8106692
  13.4286258  37.0330001  52.4927333  13.6108653  36.2151657  52.9555085
  14.2519244  37.2497694  52.0552223  13.7628424  35.9598187  49.7542381
  14.2916190  35.4490641  49.1412543  14.0256643  35.6440717  50.6187914
   2.4871749  25.2731758  49.2936089   2.7825190  24.3642437  49.2403143
   1.5859785  25.2519498  48.9717092  14.3957828  36.9939022  56.0986498
  14.2708967  36.1928762  55.5897443  15.0536919  37.4885216  55.6100468
  16.4592736  34.7948042  57.7266048  15.5123072  34.6753394  57.6544374
  16.8075509  33.9070540  57.8092309  13.4639169  34.5900759  53.9270400
  13.3164132  33.6617466  54.1077970  14.2892663  34.6120849  53.4427475
   7.3301414  23.2418826  49.7850892   7.6697486  23.7704747  49.0629500
   7.7773534  23.5799232  50.5609459  17.0673291  35.4129317  55.0135273
  17.9919839  35.2072179  54.8759724  16.8988595  35.1645718  55.9224614
   9.3169561  21.7393447  47.9844185  10.0377923  22.1174700  47.4807902
   8.6934865  22.4582324  48.0879163  13.4600684  22.4438596  48.9202517
  13.6764298  23.3263234  48.6191345  12.9794751  22.0524810  48.1908159
  16.8568607  35.9314985  50.3697364  17.0305485  35.3661407  49.6171217
  17.3497499  36.7315880  50.1876854  22.7107999  28.6951408  51.9887664
  23.1539145  27.9458733  51.5906787  21.8334509  28.6861544  51.6061396
  17.8443780  35.2481749  47.4694262  18.5394685  35.8688442  47.6881577
  18.1866930  34.3977100  47.7446640  19.7435203  32.6981455  48.9981593
  20.2686527  33.0368727  48.2730913  19.6557556  31.7628470  48.8144728
   8.4363243  32.8595370  48.9057609   8.5851363  33.5430835  48.2524281
   9.2429686  32.8400460  49.4207064  22.2540863  30.1656646  54.3810112
  23.0887755  30.6046450  54.5447672  22.3899992  29.6895299  53.5618357
   6.1915876  28.8860548  49.9118678   5.9461918  27.9822878  50.1098888
   6.3611790  28.8877698  48.9698156   5.4611523  24.6188906  47.4104839
   4.7680768  24.6933261  46.7544875   5.2163275  23.8549249  47.9326356
  11.9358648  35.3543501  46.3769356  11.3632615  35.9733688  45.9239828
  12.5091442  35.9042863  46.9109278  15.1555908  35.6380651  47.5077938
  16.0886581  35.5726213  47.7110814  15.0679121  36.4736918  47.0492471
  17.7843925  34.9546521  44.4681886  17.7057556  34.6206385  45.3617644
  18.6053592  35.4468289  44.4673358  20.4822116  27.8208261  57.6758205
  20.4498436  26.8824261  57.8617888  21.0922740  27.8992297  56.9424029
  12.3205447  26.6904314  43.7185409  13.2664552  26.5610522  43.7873827
  11.9419692  25.9518975  44.1954837  26.2998666  28.8824267  56.8164241
  27.0302054  28.6209556  57.3771945  25.6905611  28.1452989  56.8566309
  24.3813963  27.0232130  57.4138693  23.6547127  26.8888095  56.8055184
  23.9661250  27.3308959  58.2195411  10.5048364  24.6154290  43.6540294
   9.5979819  24.3187403  43.7303007  10.7824345  24.3184108  42.7874580
   9.2747149  21.4741225  43.7952273  10.1366313  21.7996123  44.0548090
   9.4597493  20.6872721  43.2825339  17.4279785  20.3469752  50.9387496
  16.8478454  21.0054556  50.5565548  17.1615718  19.5247096  50.5274913
  16.2104663  22.5069842  49.9943844  15.3230518  22.7919493  49.7764039
  16.6258652  22.3463605  49.1471121  19.5619199  22.5316363  53.7098183
  20.3379589  23.0212815  53.9822800  18.8367333  22.9574417  54.1670053
  21.9991758  23.2443982  54.7672124  22.5936249  23.0039718  54.0565432
  22.0718342  22.5251113  55.3945660  15.3547877  32.2714517  44.0891864
  16.0583727  32.4764519  44.7049520  14.6310525  32.8391279  44.3540948
  16.1845687  28.0224378  50.2094134  16.1280888  28.4792929  49.3701767
  16.7374029  27.2615063  50.0316977  19.9950493  23.8114110  51.0344254
  19.7387427  23.4110745  51.8652462  19.3703361  24.5257904  50.9094393
  24.3062831  26.5510183  53.5415545  23.7462389  26.6203372  54.3147107
  23.7006334  26.3751168  52.8215042  17.2634574  32.7097046  46.1390324
  18.0980178  32.2778244  45.9567799  17.1018917  32.5379060  47.0667219
  16.9180466  29.2129159  47.5046664  16.8629270  29.0473431  46.5635108
  16.2926521  29.9205192  47.6608853  10.2276592  18.7137268  47.0831982
  10.2155261  19.6579108  47.2400253  11.1200014  18.5307414  46.7891443
  18.5595371  45.0329602  52.1603917  17.9960236  44.9419538  51.3920204
  18.4447766  44.2129506  52.6406409  24.1394930  48.7000569  47.4718382
  23.4882910  49.2854650  47.0852395  24.9339293  49.2306764  47.5313419
  18.0650557  45.7889706  47.8705516  18.8381433  45.2418693  47.7318392
  18.4175956  46.6533956  48.0819977  20.4016835  41.9482372  45.5023966
  20.6542355  41.4263894  44.7407429  19.4641394  41.7848518  45.6050649
  25.4460118  40.9518151  53.3098709  26.2323207  40.5337574  52.9589126
  25.7098822  41.8564243  53.4780357  25.6170195  46.3891001  48.0087366
  24.9816028  46.4625628  48.7208271  25.2867601  46.9784600  47.3306445
  20.1213124  43.8510478  47.7048341  20.0049382  43.1755382  48.3729425
  20.2315383  43.3642852  46.8880494  22.4644664  43.3120626  51.4095030
  22.1002872  42.7851247  52.1207952  23.3211780  42.9219095  51.2361515
  22.1050151  38.3410525  46.4056379  22.2724554  39.2090762  46.7726850
  21.9147320  38.5037807  45.4817668  18.3137966  43.2541301  54.1058913
  17.3888463  43.1217515  54.3136605  18.5622379  44.0335520  54.6028856
  22.0839372  40.7968183  47.3903045  21.9638997  41.2425234  48.2288526
  21.3891961  41.1453500  46.8316584  27.7824438  41.2689656  48.2183379
  28.6942295  41.5017043  48.0431077  27.2734086  41.8526700  47.6558458
  25.1260413  37.4447692  56.4673240  24.2644892  37.7428945  56.7589978
  25.1522848  37.6618091  55.5354273  21.9421983  45.9889882  52.8747046
  22.4060328  46.2677585  52.0851668  21.6778781  45.0873327  52.6920137
  20.8790869  42.1113035  49.6836611  21.5814912  42.5634078  50.1510537
  20.5471497  41.4696854  50.3116504  14.6216203  40.3696587  54.9853745
  13.8315257  40.6254116  54.5093855  15.1127450  41.1844925  55.0905785
  16.5730948  40.7341167  51.9437221  15.7762111  40.8459861  52.4620717
  16.3456540  41.0727819  51.0778112  22.1184633  48.9253977  49.7598716
  21.9830308  49.7705513  50.1883564  22.6594446  49.1273255  48.9964650
  15.5714031  46.4429415  50.3326641  16.0838551  47.2372666  50.4832206
  16.2236744  45.7455706  50.2660243  25.4677097  32.4484539  58.2897610
  25.1241366  33.3386181  58.2136720  25.8356059  32.2586197  57.4267195
  13.5362947  44.7718070  51.1086212  14.3738169  45.1815078  50.8919920
  13.7141215  43.8317512  51.0786406  25.4327380  42.4393150  46.7970045
  24.9174003  43.2097755  47.0358432  25.1604688  41.7658287  47.4203106
  23.0174491  37.2842851  51.8555283  22.1616087  36.8949702  51.6760922
  23.4301442  37.3634812  50.9955069  24.5473637  34.8189194  56.2546843
  24.0438433  34.7819330  55.4414648  24.8404244  35.7281937  56.3143500
  20.7916523  34.9027924  55.2613025  21.6569520  34.7070733  54.9018914
  20.8594032  34.6738276  56.1882382  30.4061654  45.1925505  48.7323218
  29.6291096  44.8536665  48.2878380  31.0853135  45.1978128  48.0578183
  25.2213683  40.3120243  48.6229826  24.9163818  40.6266392  49.4739969
  26.1744125  40.3901662  48.6657159  23.6660115  46.4710466  50.2722780
  23.1381476  45.7363225  49.9596018  23.1647617  47.2485142  50.0262748
  18.3978842  37.1330132  52.6329392  18.9722594  36.9105314  51.9002585
  18.9849825  37.2018827  53.3857993  18.7248429  39.1634593  46.6525277
  17.8885742  39.5009280  46.9734552  18.5853199  39.0283573  45.7152414
  20.7001510  34.0071381  51.3604461  20.0465922  33.6920398  50.7361076
  20.6581984  33.3847121  52.0864284  21.8112715  44.2890676  43.2757753
  20.9039777  44.0579930  43.4748902  22.3083747  43.4928295  43.4631735
  24.7180794  52.9988183  46.1954439  24.0442492  53.3019880  46.8039397
  25.1046616  53.8017264  45.8459896  23.9339250  40.4953315  55.6852109
  23.0161812  40.7168262  55.5273797  24.3499394  40.5699625  54.8263816
  24.7174298  41.8944730  50.8154789  25.4646117  42.4066127  50.5061911
  24.9865888  41.5728783  51.6759182  22.9900948  44.3903271  47.7981743
  22.0812167  44.1062304  47.8954213  23.0196032  44.8102350  46.9385050
  27.1653135  38.9301847  52.7973578  26.4275892  38.4179233  53.1283821
  27.4179909  38.4902228  51.9856855  27.2664763  31.7078099  53.3915347
  27.5723639  30.8475462  53.1041263  27.9917367  32.2995719  53.1914341
  13.5589119  42.1108785  51.7796945  13.3613518  41.5178146  51.0548012
  13.0035783  41.8060995  52.4972884  21.5385842  42.0031892  53.8991539
  21.5934452  41.0505728  53.8234015  20.7277044  42.1591331  54.3832837
  22.6877036  45.9312015  45.1369822  22.2496466  45.2147874  44.6775459
  23.4287477  46.1588129  44.5754913  19.4778202  40.6208951  51.6581917
  18.6646068  40.9203122  52.0647110  19.9737196  40.2264640  52.3756400
  30.8050151  44.2069212  51.1946140  30.6668049  44.3970808  50.2667330
  30.4486370  44.9688595  51.6514191  18.9692277  38.1927307  57.2743152
  19.6091656  38.0516066  56.5766116  18.1369808  37.9061820  56.8981754
  19.7452581  47.4929737  53.3878145  20.5393179  46.9980057  53.1860720
  19.0344273  46.9647600  53.0245850  16.0535344  41.6372819  49.4637898
  15.1232932  41.5757274  49.6807860  16.1492816  41.1148772  48.6674539
  15.9720893  38.1627632  52.0516139  16.2327711  39.0772965  51.9425300
  16.7938066  37.6952074  52.2012752  22.9172009  53.1667856  48.4101518
  23.0923765  52.6955899  49.2247141  22.2304797  53.7933622  48.6382779
  26.8088264  44.7896396  44.7301879  26.1917434  44.0643224  44.6334932
  26.3404752  45.5505757  44.3868954  18.5986810  39.0081821  43.8523184
  17.7216276  38.8870621  43.4885430  19.0744563  38.2167899  43.6002072
  25.0947386  37.1702740  53.7419910  25.5916085  36.4172703  53.4220980
  24.3234367  37.2067057  53.1763119  26.1777166  45.9274428  51.3158333
  25.2433445  46.0475890  51.1463037  26.3553835  45.0246894  51.0518343
  21.6782354  39.3120123  53.4691594  21.3080142  38.7591164  54.1572500
  22.1741447  38.7078257  52.9166594  29.5649718  41.7691747  51.8508367
  30.0310170  42.6019739  51.7768670  30.0157218  41.3036728  52.5553626
  27.6325949  48.1135568  48.8494519  27.9085793  47.9992163  49.7588393
  26.7630448  47.7153053  48.8106692  27.5366380  34.1372334  55.8899268
  26.6229460  34.3676561  56.0581475  27.9659482  34.2210778  56.7413301
  13.3265503  40.6023676  49.2936089  13.6218944  39.6934354  49.2403143
  12.4253539  40.5811415  48.9717092  16.8559750  38.6779672  55.2763638
  16.1346336  39.2915640  55.1371111  17.6453006  39.2137437  55.1980284
  15.0553345  38.2837773  49.4175414  14.7266051  37.4035152  49.2350520
  15.4092716  38.2285442  50.3051804  18.1695168  38.5710743  49.7850892
  18.5091241  39.0996665  49.0629500  18.6167289  38.9091149  50.5609459
  20.8638609  36.9547794  59.2353960  20.5235429  36.1555607  59.6374640
  20.1577615  37.2549505  58.6630793  21.5155081  34.0397106  57.6881283
  22.3381150  33.5657585  57.5660174  21.7593144  34.8187590  58.1879969
  20.1563315  37.0685365  47.9844185  20.8771678  37.4466618  47.4807902
  19.5328619  37.7874242  48.0879163  24.2994438  37.7730514  48.9202517
  24.5158053  38.6555152  48.6191345  23.8188505  37.3816727  48.1908159
  19.0393660  40.7316227  55.4973262  18.8938240  41.0456530  56.3897543
  18.5618863  41.3501127  54.9444160  20.8990042  37.7218775  55.5454151
  20.8851611  36.8259868  55.2086449  21.6162471  37.7289439  56.1792437
  22.7516173  38.1556115  57.5907279  22.4933951  39.0773186  57.5891609
  22.2201214  37.7586550  58.2807743  20.3026938  36.6033155  50.8141722
  20.4242850  35.6749802  51.0132609  20.0128981  36.6171841  49.9020037
  23.1718129  34.2888066  53.9508441  23.1939826  34.3527399  52.9960421
  23.5886188  33.4492574  54.1448948  28.6837534  50.5773667  47.4694262
  29.3788439  51.1980359  47.6881577  29.0260685  49.7269018  47.7446640
  30.5828958  48.0273372  48.9981593  31.1080282  48.3660645  48.2730913
  30.4951310  47.0920388  48.8144728  19.2756997  48.1887288  48.9057609
  19.4245118  48.8722752  48.2524281  20.0823441  48.1692378  49.4207064
  17.0309630  44.2152466  49.9118678  16.7855672  43.3114796  50.1098888
  17.2005545  44.2169616  48.9698156  16.3005278  39.9480823  47.4104839
  15.6074523  40.0225178  46.7544875  16.0557030  39.1841167  47.9326356
  24.9718934  31.5076425  54.8144330  25.2520688  30.8399614  55.4404756
  25.7569541  31.7005520  54.3018994  22.7752403  50.6835418  46.3769356
  22.2026370  51.3025606  45.9239828  23.3485197  51.2334780  46.9109278
  25.9949663  50.9672569  47.5077938  26.9280336  50.9018130  47.7110814
  25.9072875  51.8028835  47.0492471  28.6237679  50.2838439  44.4681886
  28.5451311  49.9498303  45.3617644  29.4447346  50.7760207  44.4673358
  23.1599201  42.0196231  43.7185409  24.1058306  41.8902439  43.7873827
  22.7813446  41.2810893  44.1954837  29.1321086  33.6852237  53.6812300
  28.9345907  33.3767325  54.5655632  29.7420791  34.4113876  53.8110230
  21.3442119  39.9446208  43.6540294  20.4373574  39.6479320  43.7303007
  21.6218100  39.6476026  42.7874580  22.9604184  34.4883097  49.8084535
  22.1504913  34.1430182  50.1839781  23.6488601  34.1790641  50.3972147
  24.8894733  33.5661144  51.4308832  25.4425771  33.9856598  52.0898855
  25.1264819  32.6396892  51.4731788  20.1140903  36.8033143  43.7952273
  20.9760067  37.1288041  44.0548090  20.2991247  36.0164639  43.2825339
  28.2673540  35.6761669  50.9387496  27.6872209  36.3346473  50.5565548
  28.0009472  34.8539014  50.5274913  26.7177106  35.0766727  53.1408816
  27.2176884  35.1883262  52.3323135  27.3612714  34.7727780  53.7809625
  27.0498418  37.8361760  49.9943844  26.1624273  38.1211410  49.7764039
  27.4652407  37.6755523  49.1471121  30.4012954  37.8608281  53.7098183
  31.1773344  38.3504733  53.9822800  29.6761088  38.2866335  54.1670053
  26.1941631  47.6006434  44.0891864  26.8977481  47.8056437  44.7049520
  25.4704280  48.1683196  44.3540948  27.0239441  43.3516296  50.2094134
  26.9674643  43.8084847  49.3701767  27.5767784  42.5906980  50.0316977
  30.8344247  39.1406027  51.0344254  30.5781182  38.7402663  51.8652462
  30.2097115  39.8549821  50.9094393  28.1028328  48.0388964  46.1390324
  28.9373932  47.6070162  45.9567799  27.9412671  47.8670977  47.0667219
  27.7574221  44.5421077  47.5046664  27.7023024  44.3765348  46.5635108
  27.1320276  45.2497110  47.6608853  21.0670346  34.0429186  47.0831982
  21.0549016  34.9871026  47.2400253  21.9593768  33.8599331  46.7891443
  24.8822466  30.6371963  51.3377919  24.1154861  30.0830449  51.4834601
  25.2933171  30.7093831  52.1992070  29.4380564  54.3373738  43.8523184
  28.5610030  54.2162539  43.4885430  29.9138317  53.5459817  43.6002072
  32.1835873  55.2738125  43.6540294  31.2767328  54.9771238  43.7303007
  32.4611854  54.9767943  42.7874580  30.9534658  52.1325061  43.7952273
  31.8153822  52.4579959  44.0548090  31.1385002  51.3456556  43.2825339
  31.9064101  49.3721104  47.0831982  31.8942770  50.3162943  47.2400253
  32.7987522  49.1891249  46.7891443  15.0525096   4.9036902  42.9590808
  15.6903506   4.7843649  42.2554148  14.9345939   5.8517746  43.0178760
   7.7201618   6.7099806  38.8849223   7.1566483   6.6189743  38.1165511
   7.6054013   5.8899711  39.3651716  13.3001177  10.3770774  34.1963688
  12.6489156  10.9624855  33.8097702  14.0945539  10.9076969  34.2558726
   7.2256804   7.4659911  34.5950823   7.9987680   6.9188898  34.4563698
   7.5782203   8.3304161  34.8065284   9.5623082   3.6252577  32.2269272
   9.8148602   3.1034099  31.4652735   8.6247641   3.4618723  32.3295956
  14.6066364   2.6288356  40.0344016  15.3929454   2.2107779  39.6834433
  14.8705069   3.5334448  40.2025664  14.7776442   8.0661206  34.7332673
  14.1422275   8.1395833  35.4453577  14.4473848   8.6554805  34.0551752
  20.0074791   2.5663589  40.9376994  20.7399963   1.9962806  41.1714824
  19.2514147   2.1785189  41.3783500   9.2819370   5.5280683  34.4293647
   9.1655628   4.8525587  35.0974732   9.3921630   5.0413057  33.6125800
  11.6250911   4.9890830  38.1340337  11.2609118   4.4621451  38.8453258
  12.4818027   4.5989300  37.9606822  11.2445619   2.4738388  34.1148352
  11.1245244   2.9195438  34.9533832  10.5498207   2.8223705  33.5561890
   9.0052511  15.2442029  37.7638483   8.9276541  16.1949854  37.8426964
   8.4014155  14.8987902  38.4213410  16.9430685   2.9459861  34.9428686
  17.8548541   3.1787248  34.7676384  16.4340332   3.5296905  34.3803765
  15.5500268   7.9285679  42.3342268  14.9209130   8.0931393  41.6318335
  15.1625930   8.3427289  43.1053232  19.4289499   8.8640117  39.6886631
  18.7440538   9.2439018  39.1383665  19.5133349   9.4735444  40.4218579
  11.1028229   7.6660087  39.5992353  11.5666575   7.9447790  38.8096975
  10.8385028   6.7643532  39.4165443  10.0397115   3.7883240  36.4081918
  10.7421159   4.2404283  36.8755844   9.7077744   3.1467059  37.0361811
  17.7986259   9.3872032  44.4604332  18.6203703   8.9852219  44.1787014
  17.7948662   9.2840266  45.4120448  25.8892252   5.7310780  40.8089304
  25.1355960   5.1618178  40.6533308  26.0239793   5.6973445  41.7559938
  11.2790880  10.6024182  36.4844023  11.1436555  11.4475718  36.9128871
  11.8200693  10.8043460  35.7209957   4.7320277   8.1199620  37.0571948
   5.2444798   8.9142871  37.2077513   5.3842990   7.4225911  36.9905550
   6.5415162  11.2365377  39.1394701   6.7181791  12.1583341  38.9515685
   7.3371996  10.9223796  39.5689081  14.5933626   4.1163355  33.5215352
  14.0780250   4.8867960  33.7603739  14.3210935   3.4428492  34.1448413
  19.5667900   6.8695710  35.4568525  18.7897343   6.5306869  35.0123687
  20.2459381   6.8748333  34.7823490  14.3819930   1.9890447  35.3475133
  14.0770065   2.3036597  36.1985276  15.3350372   2.0671867  35.3902466
  12.8266361   8.1480671  36.9968087  12.2987723   7.4133430  36.6841324
  12.3253864   8.9255347  36.7508055  17.8059207   6.3429691  42.1135133
  17.1482882   7.0328953  42.2015262  18.6099607   6.7326123  42.4569119
  16.6164666   4.6974064  40.1639075  17.1296548   5.3304056  40.6660784
  17.2665890   4.0975259  39.7982435  10.9718962   5.9660881  30.0003060
  10.0646023   5.7350134  30.1994209  11.4689994   5.1698500  30.1877041
  13.8787040  14.6758388  32.9199746  13.2048739  14.9790085  33.5284704
  14.2652862  15.4787469  32.5705203  13.8780545   3.5714935  37.5400096
  14.6252364   4.0836332  37.2307218  14.1472134   3.2498988  38.4004489
  12.1507195   6.0673476  34.5227050  11.2418414   5.7832509  34.6199520
  12.1802279   6.4872554  33.6630357  17.3826462   9.6780065  38.2918217
  16.9288790   8.8370975  38.3483408  16.7520429  10.3141464  38.6292998
  16.3259382   0.6072051  39.5218885  15.5882139   0.0949438  39.8529127
  16.5786156   0.1672433  38.7102162  15.8259402  11.5156562  39.2268036
  16.1182376  12.0761619  38.5080401  16.3358022  11.8085123  39.9821195
  11.8483283   7.6082220  31.8615128  11.4102713   6.8918078  31.4020766
  12.5893724   7.8358334  31.3000220  10.7893027  12.2936913  40.3161489
  10.7469206  12.5197759  39.3870021  11.7055726  12.0600288  40.4647290
  19.9656398   5.8839417  37.9191447  19.8274296   6.0741013  36.9912636
  19.6092616   6.6458799  38.3759498  19.9925777   7.9515944  42.9302718
  20.4262284   7.8591233  43.7785773  20.7057358   7.9273444  42.2922734
   8.9058828   9.1699942  40.1123451   9.6999426   8.6750262  39.9106026
   8.1950520   8.6417805  39.7491157  13.7253672  11.5518038  44.4635819
  13.7790694  12.1208974  45.2313535  12.8568453  11.7219923  44.0989856
  20.8541327   7.9939644  45.4635604  21.0477217   8.8985455  45.7094879
  20.7541945   7.5347063  46.2974189  12.0778256  14.8438061  35.1346825
  12.2530011  14.3726104  35.9492448  11.3911044  15.4703827  35.3628086
  13.0335319   9.1210567  41.1810126  12.6985151   9.0811337  42.0767776
  12.5339264   8.4555283  40.7080537  15.9694510   6.4666601  31.4547186
  15.3523681   5.7413429  31.3580239  15.5010999   7.2275961  31.1114260
   6.6439341  17.9927423  41.9086685   6.8835939  18.6245948  42.5865704
   5.8008537  17.6415463  42.1952045  11.1567203  13.8006546  44.3128189
  11.0837374  14.6061517  44.8247494  10.7144596  13.9998512  43.4876211
  10.9456982  13.0378316  37.8231011  10.1624504  13.5799996  37.9169235
  11.6449728  13.5552296  38.2225252  22.1083390   4.5513311  42.1083508
  22.0973266   5.4338026  41.7377441  21.2400769   4.1984862  41.9138045
  13.6165886  13.6993380  46.4686348  14.3293858  14.3340845  46.3962249
  13.1255915  13.7957246  45.6526350  15.3383413   7.6044633  38.0403640
  14.4039692   7.7246095  37.8708344  15.5160082   6.7017099  37.7763649
  18.7255965   3.4461952  38.5753674  19.1916417   4.2789943  38.5013976
  19.1763465   2.9806933  39.2798932  16.7932196   9.7905773  35.5739826
  17.0692040   9.6762368  36.4833700  15.9236694   9.3923258  35.5351999
  13.4286260  14.0392124  39.2172639  13.6108654  13.2213780  39.6800392
  14.2519246  14.2559816  38.7797529  13.7628425  12.9660309  36.4787688
  14.2916192  12.4552764  35.8657850  14.0256645  12.6502839  37.3433221
   7.1184173  14.0175426  39.2385464   6.4494548  14.5021553  38.7549504
   6.9797043  14.2644646  40.1528842  11.2589442  16.0519169  45.8368122
  11.8107750  16.2150791  46.6017207  11.5995635  16.6423607  45.1648147
  14.3957829  14.0001145  42.8231804  14.2708968  13.1990885  42.3142750
  15.0536920  14.4947338  42.3345774  16.4592737  11.8010165  44.4511354
  15.5123073  11.6815516  44.3789681  16.8075510  10.9132663  44.5337616
  13.4639171  11.5962881  40.6515707  13.3164133  10.6679589  40.8323277
  14.2892664  11.6182972  40.1672782  17.0673292  12.4191440  41.7380579
  17.9919840  12.2134301  41.6005031  16.8988596  12.1707841  42.6469921
  16.8568609  12.9377107  37.0942671  17.0305486  12.3723530  36.3416523
  17.3497500  13.7378002  36.9122161  22.7108000   5.7013530  38.7132971
  23.1539146   4.9520855  38.3152094  21.8334510   5.6923667  38.3306703
  17.8443781  12.2543872  34.1939569  18.5394686  12.8750564  34.4126884
  18.1866931  11.4039223  34.4691947  19.7435204   9.7043577  35.7226900
  20.2686528  10.0430850  34.9976220  19.6557557   8.7690593  35.5390035
  11.4275865  15.7715561  40.0822153  10.9880855  15.2791939  40.7755010
  12.1783982  15.2288528  39.8414228   3.9068204  11.9627101  40.0846781
   4.7326224  11.6630873  39.7045425   3.5562256  11.1934724  40.5336570
   8.8749737  11.3153570  42.1544455   8.2529746  10.6524275  41.8546683
   9.5454604  11.3414702  41.4718103   8.4363244   9.8657493  35.6302915
   8.5851364  10.5492957  34.9769588   9.2429688   9.8462583  36.1452371
  22.2540865   7.1718769  41.1055418  23.0887756   7.6108573  41.2692979
  22.3899993   6.6957422  40.2863664   6.1915877   5.8922671  36.6363984
   5.9461919   4.9885001  36.8344194   6.3611792   5.8939821  35.6943462
  11.9358650  12.3605623  33.1014663  11.3632617  12.9795811  32.6485135
  12.5091443  12.9104985  33.6354585  15.1555909  12.6442774  34.2323245
  16.0886583  12.5788335  34.4356120  15.0679122  13.4799040  33.7737778
  17.7843926  11.9608644  31.1927193  17.7057558  11.6268507  32.0862950
  18.6053593  12.4530412  31.1918665  20.4822117   4.8270383  44.4003511
  20.4498437   3.8886384  44.5863195  21.0922741   4.9054420  43.6669336
  12.3205448   3.6966436  30.4430715  13.2664553   3.5672644  30.5119133
  11.9419693   2.9581098  30.9200143  26.2998667   5.8886390  43.5409548
  27.0302056   5.6271678  44.1017251  25.6905613   5.1515112  43.5811616
  24.3813964   4.0294253  44.1383999  23.6547128   3.8950218  43.5300491
  23.9661251   4.3371081  44.9440717  16.2104664  -0.4868035  36.7189151
  15.3230519  -0.2018385  36.5009346  16.6258653  -0.6474272  35.8716428
  19.5619201  -0.4621514  40.4343490  20.3379591   0.0274938  40.7068107
  18.8367335  -0.0363460  40.8915360  21.9991759   0.2506105  41.4917431
  22.5936250   0.0101841  40.7810739  22.0718343  -0.4686765  42.1190967
   4.2188915  14.0939716  41.8060596   4.0843383  13.3340117  41.2398594
   3.8020977  14.8180616  41.3389384  15.3547878   9.2776639  30.8137171
  16.0583728   9.4826642  31.4294826  14.6310527   9.8453401  31.0786254
  16.1845688   5.0286501  36.9339441  16.1280890   5.4855052  36.0947073
  16.7374031   4.2677185  36.7562284  19.9950494   0.8176232  37.7589561
  19.7387428   0.4172868  38.5897768  19.3703362   1.5320026  37.6339700
  24.3062832   3.5572306  40.2660852  23.7462390   3.6265495  41.0392414
  23.7006335   3.3813290  39.5460348   7.3758041  14.9909033  42.0179038
   7.2590425  15.9354465  41.9157728   6.5550487  14.6882594  42.4064837
  17.2634575   9.7159168  32.8635631  18.0980179   9.2840367  32.6813106
  17.1018918   9.5441182  33.7912525  16.9180467   6.2191282  34.2291970
  16.8629271   6.0535553  33.2880414  16.2926523   6.9267315  34.3854160
   8.4012555  15.6437295  45.2334967   9.3039802  15.6760905  45.5501462
   8.1749925  14.7137746  45.2481302  10.1566157  14.3968281  41.8945045
   9.2061788  14.3970143  41.7809418  10.4598643  13.6501016  41.3781080
  25.8918850  20.2328820  42.9590808  26.5297260  20.1135567  42.2554148
  25.7739693  21.1809664  43.0178760  22.7008557  20.1856248  42.8952332
  22.3627068  20.0697312  42.0072867  23.5698325  19.7847413  42.8753338
  18.5595372  22.0391724  38.8849223  17.9960237  21.9481661  38.1165511
  18.4447767  21.2191629  39.3651716  23.1828340  21.3391099  48.8538538
  23.1716980  20.9443898  47.9819042  23.3448979  20.6057172  49.4472309
  16.1059804  23.5342916  41.7233444  16.8981096  23.1933740  41.3079743
  16.3456454  23.6437891  42.6435597  18.0650558  22.7951829  34.5950823
  18.8381434  22.2480816  34.4563698  18.4175957  23.6596078  34.8065284
  19.9035601  24.1228211  47.8017722  19.6125467  25.0273842  47.6864388
  20.5392585  24.1644739  48.5161791  20.8291808  21.5005060  44.3919082
  21.4255380  21.2761082  43.6776044  20.8866779  20.7589805  44.9944529
  20.4016836  18.9544495  32.2269272  20.6542357  18.4326016  31.4652735
  19.4641395  18.7910641  32.3295956  25.4460119  17.9580273  40.0344016
  26.2323208  17.5399697  39.6834433  25.7098823  18.8626366  40.2025664
  30.8468546  17.8955507  40.9376994  31.5793718  17.3254723  41.1714824
  30.0907902  17.5077107  41.3783500  20.1213125  20.8572601  34.4293647
  20.0049383  20.1817504  35.0974732  20.2315385  20.3704975  33.6125800
  22.4644666  20.3182748  38.1340337  22.1002873  19.7913369  38.8453258
  23.3211782  19.9281217  37.9606822  28.3693966  11.6077081  45.3971603
  28.0377291  12.4772492  45.1732818  27.7739580  11.2913365  46.0765633
  22.1050153  15.3472648  33.1301685  22.2724555  16.2152884  33.4972156
  21.9147322  15.5099930  32.2062974  24.8625486  23.8089627  44.7967516
  24.5626209  24.7114666  44.6883323  24.5176545  23.5421810  45.6488668
  18.3137967  20.2603424  40.8304220  17.3888464  20.1279638  41.0381912
  18.5622381  21.0397643  41.3274162  28.2622630  16.3272167  42.4764953
  27.3539507  16.2587575  42.1823714  28.2110225  16.8044112  43.3046778
  22.0839374  17.8030305  34.1148352  21.9638999  18.2487356  34.9533832
  21.3891962  18.1515623  33.5561890  15.6746778  19.9036697  41.6648009
  15.8039160  20.1571176  42.5787421  14.9944230  20.4964405  41.3452664
  19.8446266  30.5733947  37.7638483  19.7670295  31.5241772  37.8426964
  19.2407909  30.2279820  38.4213410  22.3363495  17.7461813  50.4199850
  21.5596829  18.3055733  50.4102715  22.9754058  18.2318595  50.9414720
  30.1284276  14.5288605  44.2542827  29.4858656  14.8221138  43.6082621
  29.6239205  14.4141526  45.0596023  20.5909868  20.5547266  49.9817817
  21.3324552  21.0932310  49.7052641  19.8846853  21.1813555  50.1389369
  26.0665207  22.6976406  48.5789979  26.4748563  22.2558817  47.8344611
  25.3442469  22.1229034  48.8324172  22.4196277  17.6349013  45.9523536
  23.2657473  18.0588427  46.0958185  22.3594915  16.9782637  46.6462099
  26.3894022  23.2577597  42.3342268  25.7602884  23.4223311  41.6318335
  26.0019684  23.6719207  43.1053232  25.5695723  15.2953381  47.6104709
  25.3256655  16.0495442  47.0738985  25.8455653  15.6738729  48.4451956
  27.5234186  21.8391994  46.2881975  27.7351081  22.4823754  45.6116356
  27.4763934  21.0054310  45.8203905  25.1260414  14.4509814  43.1918547
  24.2644894  14.7491068  43.4835285  25.1522849  14.6680213  42.2599580
  21.9421984  22.9952005  39.5992353  22.4060329  23.2739708  38.8096975
  21.6778782  22.0935450  39.4165443  18.8346065  22.5423487  42.5372116
  19.4047422  22.9710755  41.8989600  19.4254177  22.2606071  43.2356302
  20.8790870  19.1175157  36.4081918  21.5814913  19.5696201  36.8755844
  20.5471498  18.4758976  37.0361811  19.3271231  17.7086914  50.7833127
  18.6969892  18.3903195  51.0168524  19.2207319  17.5969996  49.8386265
  14.6216204  17.3758710  41.7099051  13.8315258  17.6316239  41.2339162
  15.1127451  18.1907048  41.8151092  28.6380013  24.7163949  44.4604332
  29.4597457  24.3144137  44.1787014  28.6342416  24.6132183  45.4120448
  16.5730949  17.7403289  38.6682528  15.7762113  17.8521984  39.1866024
  16.3456541  18.0789942  37.8023419  22.4036617  24.2647993  46.6165043
  22.4681049  24.7268400  47.4523214  21.6947541  23.6345357  46.7447352
  12.9053907  17.6289201  44.1414042  13.1561945  18.5136210  44.4071618
  13.4413455  17.4493802  43.3689134  36.7286007  21.0602698  40.8089304
  35.9749715  20.4910096  40.6533308  36.8633548  21.0265362  41.7559938
  15.5714032  23.4491538  37.0571948  16.0838553  24.2434788  37.2077513
  16.2236745  22.7517829  36.9905550  17.3808917  26.5657294  39.1394701
  17.5575545  27.4875259  38.9515685  18.1765750  26.2515714  39.5689081
  21.5219935  13.4265559  50.7378635  22.2629649  14.0272712  50.6583097
  21.7537858  12.6843197  50.1796677  16.6661273  18.6121926  49.0156864
  16.5514788  17.7107183  49.3163963  15.8105791  18.8585623  48.6641681
  23.7453111  26.5539667  50.6144365  23.3016965  25.7676045  50.2965270
  24.4070325  26.7418817  49.9488256  18.5040232  28.0835468  45.1405044
  19.0547657  27.9552532  44.3682038  17.6651708  28.3830357  44.7899936
  25.8434349  26.8342466  48.6425766  25.8252824  27.6551348  48.1506035
  26.7654269  26.7096542  48.8675907  22.3007403  24.3486596  49.4849275
  22.8335740  23.5874884  49.2548583  21.7721484  24.0560248  50.2273429
  25.4677098   9.4546662  45.0142916  25.1241368  10.3448304  44.9382027
  25.8356061   9.2648320  44.1512501  13.5362949  21.7780192  37.8331519
  14.3738171  22.1877201  37.6165226  13.7141216  20.8379635  37.8031712
  23.0174492  14.2904974  38.5800590  22.1616088  13.9011824  38.4006229
  23.4301444  14.3696935  37.7200375  24.5473639  11.8251317  42.9792150
  24.0438434  11.7881452  42.1659955  24.8404245  12.7344060  43.0388806
  20.7916524  11.9090047  41.9858331  21.6569521  11.7132855  41.6264221
  20.8594033  11.6800399  42.9127688  25.2213684  17.3182365  35.3475133
  24.9163820  17.6328514  36.1985276  26.1744126  17.3963785  35.3902466
  28.6452962  21.6721609  42.1135133  27.9876636  22.3620870  42.2015262
  29.4493361  22.0618041  42.4569119  18.3978843  14.1392255  39.3574698
  18.9722595  13.9167436  38.6247891  18.9849826  14.2080949  40.1103300
  27.4558421  20.0265982  40.1639075  27.9690302  20.6595973  40.6660784
  28.1059645  19.4267177  39.7982435  18.7248431  16.1696716  33.3770583
  17.8885743  16.5071402  33.6979858  18.5853200  16.0345696  32.4397720
  20.7001511  11.0133504  38.0849768  20.0465924  10.6982521  37.4606382
  20.6581985  10.3909244  38.8109591  21.8112716  21.2952799  30.0003060
  20.9039778  21.0642052  30.1994209  22.3083748  20.4990418  30.1877041
  23.9339252  17.5015437  42.4097415  23.0161813  17.7230384  42.2519103
  24.3499395  17.5761748  41.5509123  24.7174299  18.9006853  37.5400096
  25.4646118  19.4128250  37.2307218  24.9865889  18.5790906  38.4004489
  27.1653136  15.9363969  39.5218885  26.4275893  15.4241355  39.8529127
  27.4179910  15.4964351  38.7102162  27.2664764   8.7140221  40.1160654
  27.5723641   7.8537585  39.8286569  27.9917369   9.3057841  39.9159648
  13.5589120  19.1170908  38.5042252  13.3613520  18.5240268  37.7793319
  13.0035784  18.8123118  39.2218191  21.5385844  19.0094014  40.6236845
  21.5934453  18.0567851  40.5479322  20.7277046  19.1653453  41.1078144
  19.4778203  17.6271074  38.3827224  18.6646069  17.9265244  38.7892416
  19.9737198  17.2326763  39.1001706  21.6286781  27.6228831  40.3161489
  21.5862960  27.8489677  39.3870021  22.5449480  27.3892205  40.4647290
  25.0752415  18.0912898  47.2142118  25.4301803  18.3184372  48.0736584
  25.7224546  18.4231275  46.5919373  18.9692278  15.1989429  43.9988459
  19.6091658  15.0578189  43.3011422  18.1369809  14.9123943  43.6227061
  30.8319532  23.2807861  42.9302718  31.2656038  23.1883150  43.7785773
  31.5451112  23.2565362  42.2922734  19.7452582  24.4991860  40.1123451
  20.5393181  24.0042180  39.9106026  19.0344275  23.9709723  39.7491157
  24.5647427  26.8809955  44.4635819  24.6184449  27.4500892  45.2313535
  23.6962208  27.0511840  44.0989856  16.0535346  18.6434942  36.1883204
  15.1232934  18.5819397  36.4053166  16.1492818  18.1210894  35.3919845
  15.9720895  15.1689754  38.7761446  16.2327712  16.0835088  38.6670606
  16.7938067  14.7014197  38.9258059  17.4445820  16.5827512  45.9460270
  18.1168873  16.3744874  45.2972919  16.6175606  16.3849598  45.5065503
  31.6935081  23.3231562  45.4635604  31.8870971  24.2277372  45.7094879
  31.5935699  22.8638981  46.2974189  23.3471392  13.2089453  47.9625931
  22.6999307  13.9079402  47.8690408  24.1172407  13.6425596  48.3302179
  26.7550190  23.4738305  51.0376484  26.6035696  23.2448856  50.1206568
  26.7454869  24.4308906  51.0507830  23.5235526  21.0470217  46.0222751
  24.4527586  21.1981377  45.8491718  23.1026556  21.1354238  45.1671397
  22.3223858  25.0720882  43.7921289  22.1834944  24.7039666  44.6647227
  21.5338454  25.5868521  43.6205246  22.9172010  30.1729978  35.1346825
  23.0923766  29.7018022  35.9492448  22.2304798  30.7995745  35.3628086
  23.8729073  24.4502485  41.1810126  23.5378906  24.4103255  42.0767776
  23.3733019  23.7847200  40.7080537  17.8473317  19.8570115  46.7062708
  17.7093115  19.1250353  47.3074247  18.7578241  19.7679015  46.4246895
  20.4755618  19.5690074  46.1946387  21.1855236  18.9283266  46.1533006
  20.4324926  19.8202969  47.1172568  28.4642397  26.5057427  49.1152966
  28.4054943  25.8216647  48.4483549  28.8661915  27.2476417  48.6633592
  19.1884552  16.5555292  48.0142027  18.6521909  16.1046030  48.6663623
  18.6001260  16.6901201  47.2712491  17.4833095  33.3219341  41.9086685
  17.7229694  33.9537865  42.5865704  16.6402292  32.9707381  42.1952045
  18.5986811  16.0143943  30.5768490  17.7216277  15.8932744  30.2130737
  19.0744564  15.2230021  30.3247379  28.4659804  24.4697011  47.3466946
  27.5786583  24.1322933  47.4693345  29.0358355  23.7380042  47.5835711
  10.1188951  20.8021103  40.6709997  10.8059991  20.4882833  40.0831013
   9.9637080  21.7062468  40.3977249  14.9223673  15.6911299  45.0995021
  14.8381862  15.0836969  44.3645431  14.1006380  16.1820318  45.1004517
  21.9960957  29.1298464  44.3128189  21.9231129  29.9353435  44.8247494
  21.5538350  29.3290429  43.4876211  21.7850737  28.3670234  37.8231011
  21.0018259  28.9091914  37.9169235  22.4843482  28.8844213  38.2225252
  25.0947387  14.1764863  40.4665216  25.5916087  13.4234825  40.1466286
  24.3234368  14.2129180  39.9008425  32.9477144  19.8805229  42.1083508
  32.9367021  20.7629944  41.7377441  32.0794524  19.5276779  41.9138045
  24.4559641  29.0285298  46.4686348  25.1687613  29.6632762  46.3962249
  23.9649669  29.1249164  45.6526350  21.6782356  16.3182246  40.1936901
  21.3080143  15.7653286  40.8817806  22.1741448  15.7140379  39.6411901
  29.5649719  18.7753870  38.5753674  30.0310171  19.6081861  38.5013976
  30.0157220  18.3098851  39.2798932  19.5071554  26.7779741  47.2891919
  20.2081014  27.4116224  47.4421313  19.0366669  27.1194473  46.5287558
  27.5366382  11.1434457  42.6144575  26.6229462  11.3738683  42.7826782
  27.9659483  11.2272901  43.4658607  27.3072840  19.3324348  45.1144469
  26.6544290  19.5800256  44.4596922  27.6853220  18.5188487  44.7806946
  24.2680014  29.3684042  39.2172639  24.4502409  28.5505698  39.6800392
  25.0913000  29.5851734  38.7797529  23.3560413  20.0744160  51.6010506
  22.6801050  19.9738289  52.2712881  24.1788047  19.9183373  52.0646503
  15.1039272  26.3116096  44.2223021  15.6892709  25.5659784  44.3550926
  14.9064111  26.6220053  45.1059685  17.9577928  29.3467343  39.2385464
  17.2888303  29.8313471  38.7549504  17.8190797  29.5936564  40.1528842
   9.6956927  18.8821696  42.9427465   9.7341027  18.3485287  43.7364583
   9.1897220  18.3556902  42.3238442  22.0983196  31.3811087  45.8368122
  22.6501504  31.5442708  46.6017207  22.4389390  31.9715525  45.1648147
  17.0747689  13.7286237  46.4390007  17.1389016  14.5901068  46.0267405
  17.0114810  13.1160238  45.7062365  26.9494070  26.2072344  51.6916777
  27.4933974  26.8202303  51.1971731  26.3680915  26.7651923  52.2083790
  13.3265505  17.6085798  36.0181396  13.6218946  16.6996477  35.9648450
  12.4253540  17.5873538  35.6962398  25.2351583  29.3293063  42.8231804
  25.1102723  28.5282802  42.3142750  25.8930675  29.8239256  42.3345774
  16.8559752  15.6841795  42.0008945  16.1346337  16.2977763  41.8616418
  17.6453007  16.2199560  41.9225590  27.2986492  27.1302083  44.4511354
  26.3516827  27.0107434  44.3789681  27.6469265  26.2424581  44.5337616
  19.6586065  13.0196222  48.2749596  20.1820467  13.2658518  49.0375906
  19.4398398  13.8516256  47.8552734  15.0553346  15.2899896  36.1420721
  14.7266052  14.4097275  35.9595827  15.4092717  15.2347565  37.0297110
  24.3032925  26.9254799  40.6515707  24.1557888  25.9971506  40.8323277
  25.1286419  26.9474890  40.1672782  18.1695169  15.5772866  36.5096199
  18.5091242  16.1058787  35.7874807  18.6167290  15.9153272  37.2854765
  20.8638610  13.9609917  45.9599267  20.5235431  13.1617730  46.3619947
  20.1577616  14.2611627  45.3876100  21.5155082  11.0459229  44.4126590
  22.3381151  10.5719707  44.2905480  21.7593146  11.8249713  44.9125276
  20.1563317  14.0747487  34.7089492  20.8771679  14.4528740  34.2053208
  19.5328621  14.7936364  34.8124469  24.2994439  14.7792636  35.6447824
  24.5158054  15.6617274  35.3436652  23.8188507  14.3878850  34.9153466
  19.0393661  17.7378350  42.2218568  18.8938242  18.0518653  43.1142850
  18.5618864  18.3563250  41.6689467  20.8990044  14.7280898  42.2699458
  20.8851612  13.8321991  41.9331756  21.6162472  14.7351561  42.9037744
  22.7516174  15.1618238  44.3152585  22.4933952  16.0835309  44.3136916
  22.2201215  14.7648672  45.0053050  13.5139323  20.2783694  45.1606230
  12.9692791  21.0543502  45.2926504  14.3918673  20.6254499  45.0025351
  20.3026940  13.6095278  37.5387028  20.4242851  12.6811924  37.7377916
  20.0128982  13.6233964  36.6265344  23.1718130  11.2950188  40.6753748
  23.1939827  11.3589521  39.7205728  23.5886189  10.4554697  40.8694254
  33.5501754  21.0305448  38.7132971  33.9932900  20.2812773  38.3152094
  32.6728265  21.0215584  38.3306703  14.3005345  19.4053590  48.0536386
  13.5587081  19.5536226  48.6401017  13.9798089  19.6661856  47.1903136
  22.2449007  28.9469569  47.8516777  22.5536134  28.7018715  48.7239476
  23.0424489  29.1516207  47.3635647  22.2669620  31.1007478  40.0822153
  21.8274610  30.6083857  40.7755010  23.0177736  30.5580446  39.8414228
  14.7461959  27.2919019  40.0846781  15.5719978  26.9922791  39.7045425
  14.3956010  26.5226642  40.5336570  19.7143492  26.6445487  42.1544455
  19.0923501  25.9816192  41.8546683  20.3848359  26.6706619  41.4718103
  12.9470564  25.2105346  41.0435715  12.1102472  24.7827520  40.8619716
  12.9194209  25.4037789  41.9806506  30.2722865  25.6668399  51.0278098
  29.4818409  25.6492537  50.4882597  30.0356219  26.2056692  51.7827134
  30.3920740  22.5160865  48.3410826  30.4418745  22.3510872  49.2826349
  30.2834663  21.6488124  47.9508707  19.2756999  25.1949411  35.6302915
  19.4245119  25.8784875  34.9769588  20.0823442  25.1754501  36.1452371
  27.6824502  18.4991793  49.6570133  28.5834365  18.3598258  49.3654131
  27.7572477  18.6646248  50.5968311  22.0167308  15.8758648  48.5023319
  21.1470617  16.1692214  48.2305908  22.2526788  16.4599093  49.2230583
  31.8938937  24.9357806  48.5852848  31.6023745  25.2987787  49.4216309
  31.2811068  24.2224815  48.4066180  33.0934619  22.5010686  41.1055418
  33.9281510  22.9400490  41.2692979  33.2293748  22.0249339  40.2863664
  30.1426125  20.0590421  47.0532906  30.6180247  20.2518067  46.2451757
  29.2191690  20.1149607  46.8076290  17.0309632  21.2214588  36.6363984
  16.7855674  20.3176918  36.8344194  17.2005546  21.2231739  35.6943462
  24.7206341  12.0938265  46.0188740  25.2388285  12.8299292  45.6935228
  24.3661474  12.4002258  46.8535499  16.3005279  16.9542946  34.1350146
  15.6074524  17.0287301  33.4790182  16.0557031  16.1903289  34.6571663
  24.9718936   8.5138547  41.5389636  25.2520689   7.8461736  42.1650063
  25.7569543   8.7067643  41.0264300  28.8427794  16.9356181  45.2861212
  29.7945217  17.0354279  45.3073436  28.6731244  16.1434450  45.7959296
  26.8642173  14.0211764  45.4720612  26.2692106  14.3016777  44.7767101
  26.5791870  14.5105665  46.2437354  31.3215872  20.1562301  44.4003511
  31.2892192  19.2178302  44.5863195  31.9316495  20.2346338  43.6669336
  23.1599203  19.0258354  30.4430715  24.1058307  18.8964562  30.5119133
  22.7813448  18.2873016  30.9200143  31.4710360  16.9473344  44.4461794
  30.9549409  16.1631801  44.2591723  32.3550309  16.6192061  44.6108314
  29.1321087  10.6914360  40.4057607  28.9345908  10.3829448  41.2900939
  29.7420793  11.4175999  40.5355537  37.1392422  21.2178308  43.5409548
  37.8695810  20.9563596  44.1017251  36.5299367  20.4807030  43.5811616
  35.2207719  19.3586170  44.1383999  34.4940882  19.2242135  43.5300491
  34.8055006  19.6662999  44.9440717  23.0437895  23.0776100  51.9031372
  23.9640905  23.2554699  52.0971419  23.0087478  22.1332145  51.7511071
  21.3442120  16.9508330  30.3785600  20.4373575  16.6541443  30.4548314
  21.6218101  16.6538148  29.5119887  12.2620060  18.2714694  40.8284647
  11.9422844  17.4180002  40.5359021  11.7153488  18.4863272  41.5842614
  16.0399968  20.9877135  44.5454153  16.2585977  21.9194242  44.5642187
  16.4525742  20.6285109  45.3308957  22.9604185  11.4945220  36.5329842
  22.1504914  11.1492305  36.9085088  23.6488602  11.1852764  37.1217453
  24.8894734  10.5723267  38.1554138  25.4425772  10.9918720  38.8144161
  25.1264820   9.6459015  38.1977094  20.1140904  13.8095265  30.5197580
  20.9760068  14.1350164  30.7793397  20.2991249  13.0226761  30.0070645
  12.1308320  21.8917605  42.7977768  11.4371792  21.4771558  42.2847723
  12.8781311  21.9338142  42.2011187  28.2673541  12.6823792  37.6632803
  27.6872210  13.3408596  37.2810855  28.0009474  11.8601136  37.2520220
  26.7177107  12.0828850  39.8654123  27.2176886  12.1945384  39.0568442
  27.3612715  11.7789902  40.5054931  20.7759103  19.9907479  52.7521964
  20.2926185  20.7907839  52.9585853  20.8620042  20.0015424  51.7989408
  14.0445063  21.8235859  40.6743783  14.0215751  21.9223546  39.7225666
  14.3545699  22.6701010  40.9960949  16.7032441  23.8812014  44.7890398
  17.6575694  23.8495956  44.7220329  16.5044964  23.4202638  45.6040624
  17.2931823  22.4513130  47.3561195  18.1124712  22.9457209  47.3796033
  17.5668630  21.5345098  47.3278763  27.0498419  14.8423882  36.7189151
  26.1624274  15.1273533  36.5009346  27.4652408  14.6817646  35.8716428
  30.4012955  14.8670403  40.4343490  31.1773345  15.3566856  40.7068107
  29.6761089  15.2928457  40.8915360  32.8385514  15.5798022  41.4917431
  33.4330004  15.3393758  40.7810739  32.9112097  14.8605153  42.1190967
  15.0582669  29.4231633  41.8060596  14.9237137  28.6632034  41.2398594
  14.6414732  30.1472533  41.3389384  30.8344249  16.1468150  37.7589561
  30.5781183  15.7464786  38.5897768  30.2097117  16.8611944  37.6339700
  35.1456586  18.8864223  40.2660852  34.5856144  18.9557413  41.0392414
  34.5400090  18.7105208  39.5460348  18.2151795  30.3200950  42.0179038
  18.0984179  31.2646383  41.9157728  17.3944241  30.0174512  42.4064837
  12.5466737  16.7851264  48.0553392  13.1925601  16.2750218  48.5440618
  12.3383888  17.5219945  48.6296818  25.0720129  23.8532111  53.5545533
  25.9411289  24.0272764  53.1932168  24.5926881  24.6726528  53.4321262
  21.0670347  11.0491308  33.8077289  21.0549017  11.9933148  33.9645559
  21.9593769  10.8661454  33.5136750  19.2406309  30.9729212  45.2334967
  20.1433556  31.0052823  45.5501462  19.0143679  30.0429663  45.2481302
  20.9959911  29.7260199  41.8945045  20.0455542  29.7262060  41.7809418
  21.2992398  28.9792933  41.3781080  24.8822467   7.6434085  38.0623225
  24.1154863   7.0892572  38.2079908  25.2933172   7.7155954  38.9237377
  36.7312605  35.5620737  42.9590808  37.3691015  35.4427485  42.2554148
  36.6133448  36.5101581  43.0178760  33.5402311  35.5148165  42.8952332
  33.2020823  35.3989230  42.0072867  34.4092079  35.1139330  42.8753338
  29.3989127  37.3683642  38.8849223  28.8353992  37.2773579  38.1165511
  29.2841522  36.5483546  39.3651716  34.0222094  36.6683017  48.8538538
  34.0110735  36.2735815  47.9819042  34.1842734  35.9349090  49.4472309
  26.9453559  38.8634833  41.7233444  27.7374851  38.5225658  41.3079743
  27.1850209  38.9729808  42.6435597  34.9788686  41.0354609  34.1963688
  34.3276665  41.6208690  33.8097702  35.7733048  41.5660804  34.2558726
  28.9044313  38.1243747  34.5950823  29.6775189  37.5772734  34.4563698
  29.2569712  38.9887996  34.8065284  30.7429355  39.4520129  47.8017722
  30.4519221  40.3565760  47.6864388  31.3786340  39.4936657  48.5161791
  31.6685562  36.8296977  44.3919082  32.2649134  36.6053000  43.6776044
  31.7260534  36.0881723  44.9944529  36.2853873  33.2872191  40.0344016
  37.0716963  32.8691614  39.6834433  36.5492578  34.1918283  40.2025664
  36.4563951  38.7245041  34.7332673  35.8209784  38.7979668  35.4453577
  36.1261357  39.3138640  34.0551752  41.6862300  33.2247424  40.9376994
  42.4187472  32.6546641  41.1714824  40.9301656  32.8369025  41.3783500
  33.3038420  35.6474666  38.1340337  32.9396627  35.1205287  38.8453258
  34.1605536  35.2573135  37.9606822  39.2087721  26.9368998  45.3971603
  38.8771046  27.8064409  45.1732818  38.6133334  26.6205282  46.0765633
  35.7019240  39.1381544  44.7967516  35.4019963  40.0406583  44.6883323
  35.3570300  38.8713728  45.6488668  29.1531722  35.5895341  40.8304220
  28.2282218  35.4571555  41.0381912  29.4016135  36.3689560  41.3274162
  39.1016384  31.6564085  42.4764953  38.1933261  31.5879493  42.1823714
  39.0503980  32.1336030  43.3046778  26.5140533  35.2328615  41.6648009
  26.6432914  35.4863094  42.5787421  25.8337984  35.8256323  41.3452664
  30.6840020  45.9025865  37.7638483  30.6064050  46.8533690  37.8426964
  30.0801664  45.5571737  38.4213410  33.1757250  33.0753730  50.4199850
  32.3990584  33.6347650  50.4102715  33.8147813  33.5610513  50.9414720
  40.9678031  29.8580523  44.2542827  40.3252411  30.1513056  43.6082621
  40.4632959  29.7433443  45.0596023  38.6218194  33.6043696  34.9428686
  39.5336050  33.8371083  34.7676384  38.1127841  34.1880740  34.3803765
  31.4303622  35.8839184  49.9817817  32.1718307  36.4224228  49.7052641
  30.7240608  36.5105472  50.1389369  36.9058962  38.0268324  48.5789979
  37.3142318  37.5850735  47.8344611  36.1836223  37.4520952  48.8324172
  33.2590032  32.9640931  45.9523536  34.1051227  33.3880344  46.0958185
  33.1988670  32.3074555  46.6462099  37.2287777  38.5869515  42.3342268
  36.5996639  38.7515229  41.6318335  36.8413439  39.0011124  43.1053232
  41.1077008  39.5223952  39.6886631  40.4228047  39.9022854  39.1383665
  41.1920858  40.1319279  40.4218579  36.4089477  30.6245299  47.6104709
  36.1650409  31.3787360  47.0738985  36.6849408  31.0030647  48.4451956
  38.3627940  37.1683912  46.2881975  38.5744835  37.8115671  45.6116356
  38.3157688  36.3346228  45.8203905  35.9654169  29.7801732  43.1918547
  35.1038648  30.0782986  43.4835285  35.9916604  29.9972131  42.2599580
  32.7815738  38.3243923  39.5992353  33.2454084  38.6031626  38.8096975
  32.5172536  37.4227367  39.4165443  29.6739819  37.8715404  42.5372116
  30.2441177  38.3002673  41.8989600  30.2647931  37.5897989  43.2356302
  30.1664986  33.0378832  50.7833127  29.5363647  33.7195113  51.0168524
  30.0601074  32.9261913  49.8386265  25.4609958  32.7050628  41.7099051
  24.6709012  32.9608156  41.2339162  25.9521206  33.5198966  41.8151092
  39.4773768  40.0455867  44.4604332  40.2991212  39.6436054  44.1787014
  39.4736171  39.9424101  45.4120448  33.2430371  39.5939910  46.6165043
  33.3074804  40.0560317  47.4523214  32.5341295  38.9637275  46.7447352
  23.7447661  32.9581118  44.1414042  23.9955700  33.8428128  44.4071618
  24.2807210  32.7785720  43.3689134  47.5679761  36.3894615  40.8089304
  46.8143469  35.8202013  40.6533308  47.7027302  36.3557280  41.7559938
  32.9578389  41.2608018  36.4844023  32.8224064  42.1059553  36.9128871
  33.4988202  41.4627295  35.7209957  29.4445729  27.3399598  53.1458378
  29.0512674  26.7865796  53.8206022  30.2611869  27.6510176  53.5364896
  26.4107786  38.7783456  37.0571948  26.9232307  39.5726706  37.2077513
  27.0630499  38.0809746  36.9905550  28.2202671  41.8949212  39.1394701
  28.3969299  42.8167177  38.9515685  29.0159505  41.5807631  39.5689081
  32.3613690  28.7557477  50.7378635  33.1023403  29.3564630  50.6583097
  32.5931613  28.0135114  50.1796677  27.5055028  33.9413844  49.0156864
  27.3908543  33.0399101  49.3163963  26.6499545  34.1877541  48.6641681
  34.5846865  41.8831584  50.6144365  34.1410720  41.0967963  50.2965270
  35.2464079  42.0710735  49.9488256  29.3433987  43.4127386  45.1405044
  29.8941412  43.2844449  44.3682038  28.5045463  43.7122275  44.7899936
  36.6828104  42.1634384  48.6425766  36.6646579  42.9843265  48.1506035
  37.6048024  42.0388459  48.8675907  33.1401158  39.6778514  49.4849275
  33.6729494  38.9166802  49.2548583  32.6115239  39.3852165  50.2273429
  36.3070853  24.7838580  45.0142916  35.9635122  25.6740221  44.9382027
  36.6749815  24.5940237  44.1512501  24.3756703  37.1072110  37.8331519
  25.2131925  37.5169118  37.6165226  24.5534971  36.1671552  37.8031712
  36.2721135  34.7747191  33.5215352  35.7567759  35.5451795  33.7603739
  35.9998444  34.1012327  34.1448413  35.3867393  27.1543235  42.9792150
  34.8832189  27.1173370  42.1659955  35.6798000  28.0635977  43.0388806
  41.2455409  37.5279545  35.4568525  40.4684852  37.1890705  35.0123687
  41.9246890  37.5332169  34.7823490  36.0607439  32.6474283  35.3475133
  35.7557574  32.9620432  36.1985276  37.0137881  32.7255703  35.3902466
  34.5053870  38.8064506  36.9968087  33.9775232  38.0717266  36.6841324
  34.0041373  39.5839182  36.7508055  39.4846716  37.0013527  42.1135133
  38.8270391  37.6912788  42.2015262  40.2887116  37.3909959  42.4569119
  38.2952175  35.3557899  40.1639075  38.8084057  35.9887891  40.6660784
  38.9453399  34.7559095  39.7982435  32.6506471  36.6244716  30.0003060
  31.7433532  36.3933970  30.1994209  33.1477503  35.8282336  30.1877041
  35.5574549  45.3342224  32.9199746  34.8836248  45.6373920  33.5284704
  35.9440371  46.1371304  32.5705203  34.7733006  32.8307355  42.4097415
  33.8555567  33.0522302  42.2519103  35.1893150  32.9053665  41.5509123
  35.5568054  34.2298771  37.5400096  36.3039873  34.7420168  37.2307218
  35.8259643  33.9082823  38.4004489  33.8294704  36.7257311  34.5227050
  32.9205923  36.4416344  34.6199520  33.8589788  37.1456390  33.6630357
  39.0613971  40.3363901  38.2918217  38.6076298  39.4954811  38.3483408
  38.4307938  40.9725299  38.6292998  38.0046891  31.2655887  39.5218885
  37.2669648  30.7533273  39.8529127  38.2573664  30.8256268  38.7102162
  37.5046911  42.1740397  39.2268036  37.7969885  42.7345455  38.5080401
  38.0145531  42.4668958  39.9821195  38.1058518  24.0432139  40.1160654
  38.4117395  23.1829502  39.8286569  38.8311123  24.6349759  39.9159648
  24.3982874  34.4462825  38.5042252  24.2007274  33.8532186  37.7793319
  23.8429538  34.1415036  39.2218191  32.3779598  34.3385932  40.6236845
  32.4328208  33.3859768  40.5479322  31.5670800  34.4945371  41.1078144
  33.5270792  38.2666055  31.8615128  33.0890222  37.5501914  31.4020766
  34.2681233  38.4942170  31.3000220  32.4680536  42.9520749  40.3161489
  32.4256715  43.1781595  39.3870021  33.3843235  42.7184123  40.4647290
  35.9146170  33.4204816  47.2142118  36.2695557  33.6476289  48.0736584
  36.5618301  33.7523193  46.5919373  41.6443907  36.5423252  37.9191447
  41.5061805  36.7324848  36.9912636  41.2880125  37.3042635  38.3759498
  29.8086033  30.5281347  43.9988459  30.4485412  30.3870106  43.3011422
  28.9763563  30.2415861  43.6227061  41.6713286  38.6099779  42.9302718
  42.1049793  38.5175068  43.7785773  42.3844867  38.5857279  42.2922734
  30.5846337  39.8283778  40.1123451  31.3786935  39.3334098  39.9106026
  29.8738029  39.3001641  39.7491157  35.4041181  42.2101873  44.4635819
  35.4578203  42.7792809  45.2313535  34.5355962  42.3803758  44.0989856
  28.2839574  31.9119429  45.9460270  28.9562628  31.7036791  45.2972919
  27.4569361  31.7141515  45.5065503  42.5328836  38.6523480  45.4635604
  42.7264726  39.5569290  45.7094879  42.4329454  38.1930899  46.2974189
  34.1865146  28.5381370  47.9625931  33.5393062  29.2371320  47.8690408
  34.9566162  28.9717514  48.3302179  37.5943944  38.8030222  51.0376484
  37.4429451  38.5740774  50.1206568  37.5848624  39.7600824  51.0507830
  34.3629281  36.3762135  46.0222751  35.2921341  36.5273295  45.8491718
  33.9420311  36.4646156  45.1671397  33.1617613  40.4012800  43.7921289
  33.0228698  40.0331584  44.6647227  32.3732209  40.9160439  43.6205246
  33.7565765  45.5021896  35.1346825  33.9317520  45.0309939  35.9492448
  33.0698553  46.1287662  35.3628086  34.7122828  39.7794402  41.1810126
  34.3772660  39.7395172  42.0767776  34.2126773  39.1139118  40.7080537
  28.6867072  35.1862032  46.7062708  28.5486870  34.4542271  47.3074247
  29.5971995  35.0970932  46.4246895  37.6482019  37.1250437  31.4547186
  37.0311190  36.3997265  31.3580239  37.1798508  37.8859797  31.1114260
  31.3149372  34.8981992  46.1946387  32.0248991  34.2575184  46.1533006
  31.2718681  35.1494886  47.1172568  39.3036151  41.8349345  49.1152966
  39.2448697  41.1508565  48.4483549  39.7055669  42.5768335  48.6633592
  30.0278306  31.8847209  48.0142027  29.4915663  31.4337948  48.6663623
  29.4395015  32.0193118  47.2712491  28.3226850  48.6511259  41.9086685
  28.5623448  49.2829783  42.5865704  27.4796046  48.2999299  42.1952045
  39.3053558  39.7988929  47.3466946  38.4180337  39.4614851  47.4693345
  39.8752109  39.0671960  47.5835711  20.9582705  36.1313021  40.6709997
  21.6453745  35.8174751  40.0831013  20.8030834  37.0354385  40.3977249
  25.7617428  31.0203217  45.0995021  25.6775616  30.4128887  44.3645431
  24.9400134  31.5112235  45.1004517  32.8354712  44.4590381  44.3128189
  32.7624883  45.2645353  44.8247494  32.3932105  44.6582347  43.4876211
  32.6244491  43.6962151  37.8231011  31.8412013  44.2383831  37.9169235
  33.3237237  44.2136131  38.2225252  35.9341141  29.5056781  40.4665216
  36.4309841  28.7526743  40.1466286  35.1628123  29.5421097  39.9008425
  43.7870899  35.2097146  42.1083508  43.7760775  36.0921862  41.7377441
  42.9188278  34.8568697  41.9138045  35.2953395  44.3577215  46.4686348
  36.0081367  44.9924680  46.3962249  34.8043424  44.4541081  45.6526350
  37.0170922  38.2628468  38.0403640  36.0827201  38.3829930  37.8708344
  37.1947591  37.3600935  37.7763649  40.4043473  34.1045787  38.5753674
  40.8703926  34.9373779  38.5013976  40.8550974  33.6390769  39.2798932
  30.3465309  42.1071659  47.2891919  31.0474768  42.7408142  47.4421313
  29.8760424  42.4486390  46.5287558  38.4719705  40.4489608  35.5739826
  38.7479549  40.3346203  36.4833700  37.6024203  40.0507093  35.5351999
  38.3760136  26.4726374  42.6144575  37.4623216  26.7030601  42.7826782
  38.8053238  26.5564818  43.4658607  38.1466595  34.6616266  45.1144469
  37.4938045  34.9092174  44.4596922  38.5246975  33.8480404  44.7806946
  35.1073769  44.6975959  39.2172639  35.2896163  43.8797615  39.6800392
  35.9306755  44.9143652  38.7797529  35.4415934  43.6244144  36.4787688
  35.9703701  43.1136599  35.8657850  35.7044154  43.3086675  37.3433221
  34.1954168  35.4036077  51.6010506  33.5194805  35.3030207  52.2712881
  35.0181802  35.2475291  52.0646503  25.9433027  41.6408014  44.2223021
  26.5286464  40.8951702  44.3550926  25.7457865  41.9511970  45.1059685
  28.7971682  44.6759261  39.2385464  28.1282057  45.1605389  38.7549504
  28.6584552  44.9228482  40.1528842  20.5350682  34.2113614  42.9427465
  20.5734781  33.6777205  43.7364583  20.0290974  33.6848819  42.3238442
  32.9376951  46.7103005  45.8368122  33.4895259  46.8734626  46.6017207
  33.2783144  47.3007442  45.1648147  27.9141444  29.0578154  46.4390007
  27.9782770  29.9192985  46.0267405  27.8508564  28.4452156  45.7062365
  27.3893716  31.1301287  50.0863041  28.0165755  30.7478364  50.7000565
  26.5321635  30.9115489  50.4518734  24.1659259  32.9377716  36.0181396
  24.4612700  32.0288395  35.9648450  23.2647295  32.9165456  35.6962398
  36.0745338  44.6584980  42.8231804  35.9496477  43.8574720  42.3142750
  36.7324429  45.1531174  42.3345774  27.6953506  31.0133713  42.0008945
  26.9740092  31.6269680  41.8616418  28.4846762  31.5491478  41.9225590
  38.1380246  42.4594000  44.4511354  37.1910582  42.3399351  44.3789681
  38.4863019  41.5716498  44.5337616  30.4979820  28.3488139  48.2749596
  31.0214221  28.5950436  49.0375906  30.2792153  29.1808174  47.8552734
  35.1426680  42.2546716  40.6515707  34.9951642  41.3263424  40.8323277
  35.9680173  42.2766807  40.1672782  38.7460801  43.0775275  41.7380579
  39.6707349  42.8718137  41.6005031  38.5776105  42.8291676  42.6469921
  31.7032365  29.2901834  45.9599267  31.3629185  28.4909647  46.3619947
  30.9971371  29.5903545  45.3876100  32.3548837  26.3751147  44.4126590
  33.1774906  25.9011625  44.2905480  32.5986900  27.1541630  44.9125276
  29.8787415  33.0670267  42.2218568  29.7331996  33.3810570  43.1142850
  29.4012619  33.6855168  41.6689467  33.5909929  30.4910156  44.3152585
  33.3327707  31.4127226  44.3136916  33.0594969  30.0940590  45.0053050
  38.5356118  43.5960943  37.0942671  38.7092995  43.0307365  36.3416523
  39.0285009  44.3961838  36.9122161  24.3533077  35.6075612  45.1606230
  23.8086546  36.3835420  45.2926504  25.2312427  35.9546416  45.0025351
  44.3895509  36.3597366  38.7132971  44.8326655  35.6104691  38.3152094
  43.5122019  36.3507502  38.3306703  39.5231290  42.9127707  34.1939569
  40.2182195  43.5334400  34.4126884  39.8654440  42.0623058  34.4691947
  25.1399099  34.7345508  48.0536386  24.3980835  34.8828143  48.6401017
  24.8191844  34.9953774  47.1903136  41.4222713  40.3627413  35.7226900
  41.9474037  40.7014685  34.9976220  41.3345066  39.4274428  35.5390035
  33.0842762  44.2761486  47.8516777  33.3929888  44.0310633  48.7239476
  33.8818244  44.4808125  47.3635647  33.1063374  46.4299396  40.0822153
  32.6668364  45.9375775  40.7755010  33.8571491  45.8872364  39.8414228
  25.5855713  42.6210937  40.0846781  26.4113733  42.3214709  39.7045425
  25.2349765  41.8518559  40.5336570  30.5537246  41.9737405  42.1544455
  29.9317255  41.3108110  41.8546683  31.2242113  41.9998537  41.4718103
  23.7864318  40.5397263  41.0435715  22.9496226  40.1119438  40.8619716
  23.7587963  40.7329707  41.9806506  30.6261774  30.4519193  51.7476961
  30.6749929  31.3281316  51.3654730  31.1684288  29.9096586  51.1748604
  41.2314494  37.8452783  48.3410826  41.2812499  37.6802790  49.2826349
  41.1228418  36.9780042  47.9508707  30.1150753  40.5241328  35.6302915
  30.2638873  41.2076793  34.9769588  30.9217197  40.5046418  36.1452371
  38.5218257  33.8283711  49.6570133  39.4228120  33.6890175  49.3654131
  38.5966231  33.9938165  50.5968311  32.8561062  31.2050565  48.5023319
  31.9864372  31.4984131  48.2305908  33.0920542  31.7891010  49.2230583
  43.9328374  37.8302604  41.1055418  44.7675265  38.2692408  41.2692979
  44.0687502  37.3541257  40.2863664  40.9819879  35.3882339  47.0532906
  41.4574001  35.5809985  46.2451757  40.0585445  35.4441525  46.8076290
  27.8703386  36.5506506  36.6363984  27.6249428  35.6468836  36.8344194
  28.0399301  36.5523656  35.6943462  35.5600096  27.4230182  46.0188740
  36.0782040  28.1591209  45.6935228  35.2055229  27.7294176  46.8535499
  35.8112690  23.8430465  41.5389636  36.0914444  23.1753654  42.1650063
  36.5963297  24.0359560  41.0264300  33.6146159  43.0189459  33.1014663
  33.0420126  43.6379646  32.6485135  34.1878952  43.5688820  33.6354585
  39.6821548  32.2648099  45.2861212  40.6338971  32.3646197  45.3073436
  39.5124999  31.4726367  45.7959296  37.7035928  29.3503682  45.4720612
  37.1085860  29.6308695  44.7767101  37.4185625  29.8397583  46.2437354
  36.8343418  43.3026609  34.2323245  37.7674092  43.2372171  34.4356120
  36.7466631  44.1382876  33.7737778  39.4631435  42.6192479  31.1927193
  39.3845067  42.2852343  32.0862950  40.2841102  43.1114247  31.1918665
  42.1609626  35.4854219  44.4003511  42.1285946  34.5470219  44.5863195
  42.7710250  35.5638255  43.6669336  42.3104115  32.2765262  44.4461794
  41.7943163  31.4923719  44.2591723  43.1944063  31.9483979  44.6108314
  39.9714842  26.0206278  40.4057607  39.7739663  25.7121366  41.2900939
  40.5814547  26.7467916  40.5355537  47.9786176  36.5470225  43.5409548
  48.7089565  36.2855514  44.1017251  47.3693122  35.8098947  43.5811616
  46.0601473  34.6878088  44.1383999  45.3334637  34.5534053  43.5300491
  45.6448760  34.9954917  44.9440717  33.8831650  38.4068018  51.9031372
  34.8034659  38.5846617  52.0971419  33.8481233  37.4624063  51.7511071
  23.1013815  33.6006611  40.8284647  22.7816599  32.7471920  40.5359021
  22.5547243  33.8155189  41.5842614  26.8793722  36.3169052  44.5454153
  27.0979732  37.2486160  44.5642187  27.2919496  35.9577027  45.3308957
  35.7288488  25.9015184  38.1554138  36.2819527  26.3210638  38.8144161
  35.9658575  24.9750933  38.1977094  31.7521587  31.8902258  53.9356902
  31.6518314  32.8396615  53.8668993  31.5343130  31.5620497  53.0632972
  22.9702075  37.2209523  42.7977768  22.2765546  36.8063476  42.2847723
  23.7175066  37.2630059  42.2011187  39.1067295  28.0115710  37.6632803
  38.5265964  28.6700514  37.2810855  38.8403228  27.1893054  37.2520220
  37.5570862  27.4120767  39.8654123  38.0570640  27.5237302  39.0568442
  38.2006470  27.1081820  40.5054931  31.6152858  35.3199397  52.7521964
  31.1319939  36.1199757  52.9585853  31.7013797  35.3307342  51.7989408
  24.8838817  37.1527777  40.6743783  24.8609505  37.2515464  39.7225666
  25.1939454  37.9992927  40.9960949  27.5426195  39.2103932  44.7890398
  28.4969449  39.1787874  44.7220329  27.3438719  38.7494555  45.6040624
  28.1325577  37.7805048  47.3561195  28.9518466  38.2749126  47.3796033
  28.4062385  36.8637016  47.3278763  37.8892173  30.1715800  36.7189151
  37.0018028  30.4565451  36.5009346  38.3046162  30.0109563  35.8716428
  41.2406710  30.1962321  40.4343490  42.0167100  30.6858773  40.7068107
  40.5154844  30.6220375  40.8915360  43.6779268  30.9089940  41.4917431
  44.2723759  30.6685676  40.7810739  43.7505852  30.1897071  42.1190967
  25.8976424  44.7523551  41.8060596  25.7630892  43.9923952  41.2398594
  25.4808486  45.4764451  41.3389384  37.0335387  39.9360475  30.8137171
  37.7371237  40.1410477  31.4294826  36.3098036  40.5037237  31.0786254
  37.8633197  35.6870336  36.9339441  37.8068399  36.1438887  36.0947073
  38.4161540  34.9261020  36.7562284  41.6738003  31.4760068  37.7589561
  41.4174937  31.0756703  38.5897768  41.0490871  32.1903862  37.6339700
  45.9850341  34.2156141  40.2660852  45.4249899  34.2849330  41.0392414
  45.3793844  34.0397126  39.5460348  29.0545550  45.6492868  42.0179038
  28.9377934  46.5938301  41.9157728  28.2337996  45.3466430  42.4064837
  38.9422084  40.3743004  32.8635631  39.7767688  39.9424202  32.6813106
  38.7806427  40.2025018  33.7912525  38.5967976  36.8775117  34.2291970
  38.5416780  36.7119389  33.2880414  37.9714032  37.5851150  34.3854160
  23.3860491  32.1143182  48.0553392  24.0319355  31.6042135  48.5440618
  23.1777643  32.8511863  48.6296818  30.0800064  46.3021130  45.2334967
  30.9827311  46.3344740  45.5501462  29.8537434  45.3721581  45.2481302
  31.8353666  45.0552117  41.8945045  30.8849297  45.0553978  41.7809418
  32.1386152  44.3084851  41.3781080  35.7216221  22.9726003  38.0623225
  34.9548617  22.4184489  38.2079908  36.1326926  23.0447872  38.9237377
  27.7257982  29.2610799  52.1528407  28.5889444  28.9047603  52.3631731
  27.1523393  28.9224693  52.8403811  40.2382881  52.6975559  38.8849223
  39.6747746  52.6065496  38.1165511  40.1235276  51.8775464  39.3651716
  37.7847313  54.1926751  41.7233444  38.5768605  53.8517576  41.3079743
  38.0243963  54.3021726  42.6435597  39.7438067  53.4535664  34.5950823
  40.5168943  52.9064651  34.4563698  40.0963466  54.3179914  34.8065284
  42.0804345  49.6128330  32.2269272  42.3329866  49.0909852  31.4652735
  41.1428904  49.4494476  32.3295956  47.1247628  48.6164109  40.0344016
  47.9110717  48.1983532  39.6834433  47.3886332  49.5210201  40.2025664
  41.8000634  51.5156436  34.4293647  41.6836892  50.8401340  35.0974732
  41.9102894  51.0288810  33.6125800  44.1432175  50.9766583  38.1340337
  43.7790382  50.4497204  38.8453258  44.9999291  50.5865053  37.9606822
  43.7837662  46.0056483  33.1301685  43.9512064  46.8736720  33.4972156
  43.5934831  46.1683765  32.2062974  39.9925476  50.9187259  40.8304220
  39.0675973  50.7863473  41.0381912  40.2409890  51.6981478  41.3274162
  43.7626883  48.4614141  34.1148352  43.6426508  48.9071191  34.9533832
  43.0679471  48.8099458  33.5561890  37.3534287  50.5620532  41.6648009
  37.4826669  50.8155011  42.5787421  36.6731739  51.1548240  41.3452664
  49.4611949  48.9335614  34.9428686  50.3729805  49.1663001  34.7676384
  48.9521596  49.5172658  34.3803765  46.8047923  45.1093650  43.1918547
  45.9432402  45.4074903  43.4835285  46.8310358  45.3264049  42.2599580
  43.6209493  53.6535840  39.5992353  44.0847838  53.9323543  38.8096975
  43.3566291  52.7519285  39.4165443  42.5578379  49.7758993  36.4081918
  43.2602422  50.2280036  36.8755844  42.2259007  49.1342812  37.0361811
  36.3003713  48.0342545  41.7099051  35.5102767  48.2900074  41.2339162
  36.7914960  48.8490883  41.8151092  38.2518458  48.3987125  38.6682528
  37.4549622  48.5105819  39.1866024  38.0244050  48.7373777  37.8023419
  34.5841416  48.2873036  44.1414042  34.8349454  49.1720046  44.4071618
  35.1200964  48.1077637  43.3689134  37.2501541  54.1075373  37.0571948
  37.7626062  54.9018624  37.2077513  37.9024254  53.4101664  36.9905550
  39.0596426  57.2241130  39.1394701  39.2363054  58.1459094  38.9515685
  39.8553259  56.9099549  39.5689081  47.1464607  40.1130497  45.0142916
  46.8028877  41.0032139  44.9382027  47.5143570  39.9232155  44.1512501
  35.2150458  52.4364028  37.8331519  36.0525680  52.8461036  37.6165226
  35.3928725  51.4963470  37.8031712  47.1114890  50.1039108  33.5215352
  46.5961513  50.8743713  33.7603739  46.8392198  49.4304245  34.1448413
  44.6962001  44.9488809  38.5800590  43.8403597  44.5595660  38.4006229
  45.1088953  45.0280770  37.7200375  46.2261148  42.4835152  42.9792150
  45.7225943  42.4465288  42.1659955  46.5191754  43.3927895  43.0388806
  42.4704033  42.5673882  41.9858331  43.3357030  42.3716691  41.6264221
  42.5381542  42.3384234  42.9127688  46.9001193  47.9766200  35.3475133
  46.5951329  48.2912350  36.1985276  47.8531635  48.0547620  35.3902466
  45.3447625  54.1356424  36.9968087  44.8168986  53.4009183  36.6841324
  44.8435128  54.9131100  36.7508055  40.0766352  44.7976090  39.3574698
  40.6510104  44.5751272  38.6247891  40.6637335  44.8664785  40.1103300
  40.4035940  46.8280551  33.3770583  39.5673252  47.1655238  33.6979858
  40.2640709  46.6929531  32.4397720  42.3789020  41.6717339  38.0849768
  41.7253433  41.3566356  37.4606382  42.3369494  41.0493079  38.8109591
  43.4900225  51.9536634  30.0003060  42.5827287  51.7225888  30.1994209
  43.9871257  51.1574253  30.1877041  45.6126761  48.1599273  42.4097415
  44.6949322  48.3814220  42.2519103  46.0286904  48.2345583  41.5509123
  46.3961808  49.5590688  37.5400096  47.1433627  50.0712085  37.2307218
  46.6653398  49.2374741  38.4004489  44.6688458  52.0549229  34.5227050
  43.7599678  51.7708262  34.6199520  44.6983542  52.4748307  33.6630357
  48.8440645  46.5947804  39.5218885  48.1063402  46.0825191  39.8529127
  49.0967419  46.1548186  38.7102162  48.9452273  39.3724056  40.1160654
  49.2511150  38.5121420  39.8286569  49.6704878  39.9641677  39.9159648
  35.2376629  49.7754743  38.5042252  35.0401029  49.1824104  37.7793319
  34.6823293  49.4706953  39.2218191  43.2173353  49.6677850  40.6236845
  43.2721962  48.7151686  40.5479322  42.4064555  49.8237289  41.1078144
  44.3664546  53.5957973  31.8615128  43.9283976  52.8793832  31.4020766
  45.1074987  53.8234087  31.3000220  41.1565712  48.2854909  38.3827224
  40.3433578  48.5849080  38.7892416  41.6524707  47.8910598  39.1001706
  40.6479787  45.8573265  43.9988459  41.2879167  45.7162024  43.3011422
  39.8157318  45.5707778  43.6227061  41.4240091  55.1575695  40.1123451
  42.2180690  54.6626015  39.9106026  40.7131783  54.6293558  39.7491157
  37.7322855  49.3018777  36.1883204  36.8020443  49.2403232  36.4053166
  37.8280327  48.7794730  35.3919845  37.6508404  45.8273590  38.7761446
  37.9115221  46.7418923  38.6670606  38.4725576  45.3598032  38.9258059
  39.1233329  47.2411347  45.9460270  39.7956382  47.0328709  45.2972919
  38.2963115  47.0433433  45.5065503  48.4875774  52.4542354  31.4547186
  47.8704945  51.7289182  31.3580239  48.0192262  53.2151715  31.1114260
  40.2774320  46.6727779  30.5768490  39.4003786  46.5516579  30.2130737
  40.7532073  45.8813857  30.3247379  31.7976460  51.4604938  40.6709997
  32.4847500  51.1466668  40.0831013  31.6424589  52.3646303  40.3977249
  36.6011182  46.3495135  45.0995021  36.5169371  45.7420804  44.3645431
  35.7793888  46.8404153  45.1004517  46.7734896  44.8348698  40.4665216
  47.2703595  44.0818661  40.1466286  46.0021877  44.8713015  39.9008425
  43.3569865  46.9766081  40.1936901  42.9867652  46.4237122  40.8817806
  43.8528957  46.3724215  39.6411901  51.2437228  49.4337705  38.5753674
  51.7097680  50.2665696  38.5013976  51.6944728  48.9682686  39.2798932
  49.2153891  41.8018292  42.6144575  48.3016971  42.0322519  42.7826782
  49.6446992  41.8856736  43.4658607  31.3744436  49.5405532  42.9427465
  31.4128536  49.0069122  43.7364583  30.8684729  49.0140737  42.3238442
  38.7535198  44.3870072  46.4390007  38.8176525  45.2484903  46.0267405
  38.6902319  43.7744074  45.7062365  35.0053014  48.2669634  36.0181396
  35.3006455  47.3580312  35.9648450  34.1041049  48.2457373  35.6962398
  38.5347261  46.3425630  42.0008945  37.8133846  46.9561598  41.8616418
  39.3240516  46.8783395  41.9225590  36.7340855  45.9483731  36.1420721
  36.4053561  45.0681110  35.9595827  37.0880226  45.8931400  37.0297110
  39.8482678  46.2356701  36.5096199  40.1878751  46.7642622  35.7874807
  40.2954799  46.5737107  37.2854765  42.5426119  44.6193752  45.9599267
  42.2022940  43.8201565  46.3619947  41.8365125  44.9195463  45.3876100
  43.1942591  41.7043064  44.4126590  44.0168660  41.2303543  44.2905480
  43.4380655  42.4833548  44.9125276  41.8350826  44.7331323  34.7089492
  42.5559188  45.1112576  34.2053208  41.2116130  45.4520200  34.8124469
  45.9781948  45.4376472  35.6447824  46.1945563  46.3201110  35.3436652
  45.4976016  45.0462685  34.9153466  40.7181170  48.3962185  42.2218568
  40.5725751  48.7102488  43.1142850  40.2406373  49.0147085  41.6689467
  42.5777553  45.3864733  42.2699458  42.5639121  44.4905826  41.9331756
  43.2949981  45.3935397  42.9037744  44.4303683  45.8202073  44.3152585
  44.1721461  46.7419144  44.3136916  43.8988724  45.4232508  45.0053050
  35.1926832  50.9367529  45.1606230  34.6480300  51.7127337  45.2926504
  36.0706182  51.2838334  45.0025351  41.9814449  44.2679113  37.5387028
  42.1030360  43.3395759  37.7377916  41.6916491  44.2817799  36.6265344
  44.8505639  41.9534024  40.6753748  44.8727336  42.0173357  39.7205728
  45.2673698  41.1138532  40.8694254  36.4249467  57.9502854  40.0846781
  37.2507487  57.6506626  39.7045425  36.0743519  57.1810477  40.5336570
  34.6258073  55.8689181  41.0435715  33.7889981  55.4411355  40.8619716
  34.5981718  56.0621624  41.9806506  40.9544508  55.8533246  35.6302915
  41.1032628  56.5368710  34.9769588  41.7610951  55.8338336  36.1452371
  38.7097141  51.8798424  36.6363984  38.4643182  50.9760754  36.8344194
  38.8793055  51.8815574  35.6943462  37.9792788  47.6126781  34.1350146
  37.2862033  47.6871136  33.4790182  37.7344540  46.8487125  34.6571663
  46.6506445  39.1722383  41.5389636  46.9308198  38.5045572  42.1650063
  47.4357052  39.3651478  41.0264300  44.8386712  49.6842189  30.4430715
  45.7845816  49.5548397  30.5119133  44.4600957  48.9456851  30.9200143
  50.8108596  41.3498195  40.4057607  50.6133417  41.0413283  41.2900939
  51.4208302  42.0759834  40.5355537  43.0229629  47.6092166  30.3785600
  42.1161084  47.3125278  30.4548314  43.3005610  47.3121984  29.5119887
  33.9407569  48.9298529  40.8284647  33.6210353  48.0763837  40.5359021
  33.3940997  49.1447107  41.5842614  44.6391694  42.1529055  36.5329842
  43.8292423  41.8076140  36.9085088  45.3276111  41.8436599  37.1217453
  46.5682243  41.2307102  38.1554138  47.1213281  41.6502556  38.8144161
  46.8052329  40.3042850  38.1977094  41.7928413  44.4679101  30.5197580
  42.6547577  44.7933999  30.7793397  41.9778758  43.6810597  30.0070645
  33.8095829  52.5501440  42.7977768  33.1159301  52.1355393  42.2847723
  34.5568820  52.5921977  42.2011187  49.9461050  43.3407627  37.6632803
  49.3659719  43.9992431  37.2810855  49.6796983  42.5184972  37.2520220
  48.3964616  42.7412685  39.8654123  48.8964395  42.8529219  39.0568442
  49.0400224  42.4373738  40.5054931  35.7232572  52.4819694  40.6743783
  35.7003260  52.5807382  39.7225666  36.0333208  53.3284845  40.9960949
  48.7285928  45.5007718  36.7189151  47.8411783  45.7857368  36.5009346
  49.1439917  45.3401481  35.8716428  52.0800464  45.5254239  40.4343490
  52.8560854  46.0150691  40.7068107  51.3548598  45.9512293  40.8915360
  48.7026952  51.0162254  36.9339441  48.6462153  51.4730805  36.0947073
  49.2555294  50.2552938  36.7562284  52.5131758  46.8051985  37.7589561
  52.2568692  46.4048621  38.5897768  51.8884626  47.5195779  37.6339700
  42.7457856  41.7075144  33.8077289  42.7336526  42.6516984  33.9645559
  43.6381278  41.5245289  33.5136750  46.5609976  38.3017920  38.0623225
  45.7942372  37.7476407  38.2079908  46.9720681  38.3739789  38.9237377
  18.5595374  -0.9546153  25.6094530  17.9960239  -1.0456216  24.8410818
  18.4447769  -1.7746249  26.0897022  23.1828341  -1.6546778  35.5783845
  23.1716982  -2.0493980  34.7064348  23.3448980  -2.3880705  36.1717616
  16.1059806   0.5405038  28.4478750  16.8981097   0.1995863  28.0325050
  16.3456456   0.6500013  29.3680904  24.1394932   2.7124814  20.9208995
  23.4882912   3.2978895  20.5343009  24.9339295   3.2431009  20.9804032
  18.0650559  -0.1986048  21.3196129  18.8381435  -0.7457061  21.1809005
  18.4175958   0.6658201  21.5310591  19.9035602   1.1290334  34.5263028
  19.6125468   2.0335965  34.4109695  20.5392586   1.1706861  35.2407098
  20.8291809  -1.4932818  31.1164388  21.4255381  -1.7176795  30.4021351
  20.8866780  -2.2348072  31.7189836  25.6170197   0.4015246  21.4577979
  24.9816030   0.4749873  22.1698884  25.2867604   0.9908845  20.7797058
  20.1213126  -2.1365276  21.1538954  20.0049384  -2.8120373  21.8220038
  20.2315386  -2.6232902  20.3371107  22.4644667  -2.6755129  24.8585643
  22.1002874  -3.2024508  25.5698565  23.3211783  -3.0656660  24.6852129
  24.8625487   0.8151749  31.5212822  24.5626210   1.7176788  31.4128629
  24.5176547   0.5483933  32.3733975  18.3137969  -2.7334454  27.5549527
  17.3888465  -2.8658240  27.7627218  18.5622382  -1.9540235  28.0519469
  19.8446267   7.5796070  24.4883790  19.7670297   8.5303895  24.5672270
  19.2407910   7.2341942  25.1458716  20.5909869  -2.4390612  36.7063124
  21.3324553  -1.9005568  36.4297947  19.8846854  -1.8124323  36.8634676
  26.0665209  -0.2961471  35.3035285  26.4748565  -0.7379061  34.5589918
  25.3442470  -0.8708844  35.5569478  26.3894023   0.2639720  29.0587574
  25.7602886   0.4285434  28.3563642  26.0019685   0.6781329  29.8298538
  30.2683255   1.1994157  26.4131938  29.5834293   1.5793059  25.8628971
  30.3527104   1.8089484  27.1463886  21.9421985   0.0014128  26.3237659
  22.4060331   0.2801831  25.5342282  21.6778783  -0.9002428  26.1410750
  18.8346066  -0.4514391  29.2617423  19.4047423  -0.0227122  28.6234907
  19.4254178  -0.7331806  29.9601608  28.6380015   1.7226072  31.1849639
  29.4597458   1.3206259  30.9032320  28.6342418   1.6194306  32.1365755
  22.4036618   1.2710115  33.3410349  22.4681051   1.7330522  34.1768521
  21.6947542   0.6407480  33.4692659  22.1184636   2.9378223  23.2089330
  21.9830311   3.7829758  23.6374177  22.6594448   3.1397500  22.4455263
  15.5714033   0.4553661  23.7817255  16.0838554   1.2496911  23.9322819
  16.2236746  -0.2420049  23.7150856  17.3808918   3.5719417  25.8640008
  17.5575546   4.4937382  25.6760992  18.1765751   3.2577836  26.2934388
  23.7453112   3.5601789  37.3389672  23.3016966   2.7738168  37.0210576
  24.4070326   3.7480940  36.6733562  18.5040233   5.0897591  31.8650350
  19.0547659   4.9614654  31.0927344  17.6651709   5.3892480  31.5145243
  25.8434350   3.8404589  35.3671073  25.8252826   4.6613470  34.8751342
  26.7654270   3.7158664  35.5921214  22.3007404   1.3548719  36.2094581
  22.8335741   0.5937007  35.9793889  21.7721486   1.0622370  36.9518736
  23.6660117   0.4834711  23.7213393  23.1381479  -0.2512529  23.4086631
  23.1647620   1.2609387  23.4753362  28.6452963  -1.3216268  28.8380440
  27.9876638  -0.6317007  28.9260568  29.4493362  -0.9319837  29.1814426
  21.8112717  -1.6985079  16.7248366  20.9039779  -1.9295825  16.9239515
  22.3083749  -2.4947459  16.9122348  24.7180796   7.0112428  19.6445053
  24.0442495   7.3144125  20.2530010  25.1046618   7.8141509  19.2950510
  22.9900951  -1.5972484  21.2472356  22.0812170  -1.8813451  21.3444826
  23.0196035  -1.1773405  20.3875663  28.2220218   2.0134106  25.0163524
  27.7682545   1.1725016  25.0728715  27.5914185   2.6495504  25.3538304
  26.6653157   3.8510602  25.9513342  26.9576132   4.4115659  25.2325708
  27.1751778   4.1439163  26.7066501  22.6877039  -0.0563740  18.5860435
  22.2496468  -0.7727881  18.1266072  23.4287479   0.1712375  18.0245526
  21.6286783   4.6290953  27.0406795  21.5862961   4.8551800  26.1115327
  22.5449481   4.3954328  27.1892597  30.8319533   0.2869984  29.6548025
  31.2656040   0.1945273  30.5031079  31.5451114   0.2627484  29.0168041
  19.7452583   1.5053982  26.8368758  20.5393182   1.0104303  26.6351333
  19.0344276   0.9771846  26.4736464  24.5647428   3.8872078  31.1881126
  24.6184450   4.4563014  31.9558842  23.6962209   4.0573963  30.8235163
  31.6935083   0.3293685  32.1880911  31.8870973   1.2339495  32.4340185
  31.5935701  -0.1298896  33.0219496  26.7550191   0.4800427  37.7621791
  26.6035698   0.2510979  36.8451875  26.7454871   1.4371029  37.7753136
  23.5235528  -1.9467660  32.7468058  24.4527588  -1.7956500  32.5737025
  23.1026558  -1.8583639  31.8916704  22.3223859   2.0783004  30.5166595
  22.1834945   1.7101789  31.3892533  21.5338456   2.5930644  30.3450553
  22.9172011   7.1792101  21.8592132  23.0923767   6.7080144  22.6737754
  22.2304799   7.8057867  22.0873392  23.8729075   1.4564607  27.9055433
  23.5378907   1.4165377  28.8013083  23.3733020   0.7909323  27.4325843
  26.8088266  -1.1979359  18.1792493  26.1917437  -1.9232530  18.0825545
  26.3404755  -0.4369998  17.8359567  28.4642398   3.5119550  35.8398273
  28.4054944   2.8278770  35.1728856  28.8661916   4.2538540  35.3878899
  17.4833097  10.3281464  28.6331992  17.7229695  10.9599988  29.3111010
  16.6402293   9.9769504  28.9197351  28.4659805   1.4759134  34.0712253
  27.5786584   1.1385056  34.1938652  29.0358356   0.7442165  34.3081018
  21.9960958   6.1360586  31.0373496  21.9231130   6.9415558  31.5492800
  21.5538352   6.3352552  30.2121517  21.7850738   5.3732356  24.5476317
  21.0018260   5.9154036  24.6414542  22.4843483   5.8906336  24.9470559
  24.4559642   6.0347420  33.1931655  25.1687614   6.6694885  33.1207556
  23.9649671   6.1311286  32.3771656  26.1777169  -0.0601327  24.7648946
  25.2433448   0.0600135  24.5953651  26.3553837  -0.9628860  24.5008956
  19.5071556   3.7841864  34.0137225  20.2081015   4.4178347  34.1666620
  19.0366671   4.1256595  33.2532865  27.6325951   2.1259813  22.2985132
  27.9085795   2.0116408  23.2079006  26.7630450   1.7277298  22.2597305
  24.2680015   6.3746164  25.9417946  24.4502410   5.5567820  26.4045698
  25.0913001   6.5913856  25.5042836  24.6022181   5.3014349  23.2032994
  25.1309947   4.7906804  22.5903157  24.8650400   4.9856880  24.0678528
  15.1039274   3.3178219  30.9468328  15.6892710   2.5721907  31.0796232
  14.9064112   3.6282175  31.8304992  17.9577929   6.3529466  25.9630770
  17.2888304   6.8375594  25.4794810  17.8190799   6.5998687  26.8774149
  22.0983197   8.3873210  32.5613429  22.6501505   8.5504831  33.3262514
  22.4389391   8.9777647  31.8893454  26.9494072   3.2134467  38.4162083
  27.4933976   3.8264425  37.9217038  26.3680917   3.7714045  38.9329096
  25.2351585   6.3355185  29.5477111  25.1102724   5.5344925  29.0388056
  25.8930676   6.8301378  29.0591081  27.2986493   4.1364205  31.1756661
  26.3516829   4.0169556  31.1034988  27.6469266   3.2486703  31.2582922
  24.3032926   3.9316921  27.3761013  24.1557889   3.0033629  27.5568583
  25.1286420   3.9537012  26.8918088  27.9067048   4.7545480  28.4625886
  28.8313596   4.5488341  28.3250337  27.7382352   4.5061881  29.3715228
  27.6962364   5.2731148  23.8187977  27.8699242   4.7077570  23.0661830
  28.1891256   6.0732042  23.6367467  28.6837537   4.5897912  20.9184876
  29.3788442   5.2104605  21.1372190  29.0260687   3.7393263  21.1937254
  30.5828960   2.0397618  22.4472207  31.1080284   2.3784890  21.7221527
  30.4951313   1.1044633  22.2635341  22.2449009   5.9531691  34.5762083
  22.5536135   5.7080838  35.4484783  23.0424491   6.1578330  34.0880953
  22.2669621   8.1069601  26.8067460  21.8274611   7.6145979  27.5000316
  23.0177738   7.5642568  26.5659535  14.7461960   4.2981142  26.8092088
  15.5719980   3.9984914  26.4290731  14.3956012   3.5288764  27.2581876
  19.7143493   3.6507610  28.8789761  19.0923502   2.9878315  28.5791989
  20.3848360   3.6768742  28.1963409  12.9470565   2.2167468  27.7681021
  12.1102473   1.7889642  27.5865023  12.9194210   2.4099911  28.7051813
  30.2722866   2.6730521  37.7523404  29.4818410   2.6554660  37.2127904
  30.0356221   3.2118815  38.5072441  19.2757000   2.2011533  22.3548222
  19.4245120   2.8846998  21.7014895  20.0823443   2.1816623  22.8697678
  31.8938938   1.9419929  35.3098155  31.6023746   2.3049910  36.1461616
  31.2811069   1.2286937  35.1311487  17.0309633  -1.7723289  23.3609291
  16.7855675  -2.6760959  23.5589501  17.2005547  -1.7706139  22.4188769
  22.7752405   4.6959664  19.8259969  22.2026372   5.3149851  19.3730441
  23.3485199   5.2459025  20.3599891  25.9949665   4.9796814  20.9568552
  26.9280338   4.9142375  21.1601427  25.9072878   5.8153081  20.4983084
  28.6237682   4.2962684  17.9172499  28.5451313   3.9622548  18.8108257
  29.4447349   4.7884452  17.9163972  23.0437896   0.0838223  38.6276679
  23.9640906   0.2616822  38.8216725  23.0087479  -0.8605732  38.4756378
  16.0399969  -2.0060743  31.2699460  16.2585979  -1.0743635  31.2887494
  16.4525743  -2.3652768  32.0554264  20.7759104  -3.0030398  39.4767271
  20.2926186  -2.2030038  39.6831160  20.8620043  -2.9922453  38.5234715
  16.7032442   0.8874137  31.5135704  17.6575695   0.8558079  31.4465636
  16.5044965   0.4264760  32.3285930  17.2931824  -0.5424747  34.0806502
  18.1124713  -0.0480669  34.1041339  17.5668632  -1.4592779  34.0524070
  15.0582671   6.4293756  28.5305902  14.9237139   5.6694157  27.9643900
  14.6414733   7.1534656  28.0634691  26.1941634   1.6130680  17.5382477
  26.8977484   1.8180682  18.1540133  25.4704282   2.1807441  17.8031561
  18.2151796   7.3263073  28.7424345  18.0984181   8.2708506  28.6403035
  17.3944243   7.0236635  29.1310144  28.1028331   2.0513209  19.5880938
  28.9373935   1.6194407  19.4058412  27.9412674   1.8795222  20.5157832
  27.7574223  -1.4454678  20.9537277  27.7023027  -1.6110407  20.0125721
  27.1320278  -0.7378645  21.1099467  25.0720130   0.8594234  40.2790840
  25.9411290   1.0334886  39.9177475  24.5926882   1.6788651  40.1566569
  19.2406311   7.9791335  31.9580273  20.1433557   8.0114945  32.2746768
  19.0143681   7.0491786  31.9726609  20.9959913   6.7322321  28.6190352
  20.0455544   6.7324183  28.5054724  21.2992399   5.9855056  28.1026387
  36.7312606  12.5682860  29.6836114  37.3691016  12.4489607  28.9799454
  36.6133449  13.5163704  29.7424066  33.5402312  12.5210288  29.6197639
  33.2020824  12.4051353  28.7318174  34.4092081  12.1201453  29.5998645
  29.3989128  14.3745764  25.6094530  28.8353993  14.2835701  24.8410818
  29.2841523  13.5545669  26.0897022  34.0222095  13.6745140  35.5783845
  34.0110736  13.2797938  34.7064348  34.1842735  12.9411212  36.1717616
  34.9788687  18.0416732  20.9208995  34.3276667  18.6270812  20.5343009
  35.7733050  18.5722927  20.9804032  28.9044314  15.1305869  21.3196129
  29.6775190  14.5834856  21.1809005  29.2569713  15.9950119  21.5310591
  31.6685563  13.8359100  31.1164388  32.2649136  13.6115122  30.4021351
  31.7260535  13.0943845  31.7189836  31.2410592  11.2898535  18.9514579
  31.4936112  10.7680057  18.1898042  30.3035151  11.1264681  19.0541263
  36.2853875  10.2934314  26.7589322  37.0716964   9.8753737  26.4079739
  36.5492579  11.1980406  26.9270971  36.4563952  15.7307164  21.4577979
  35.8209785  15.8041791  22.1698884  36.1261358  16.3200763  20.7797058
  41.6862302  10.2309547  27.6622301  42.4187474   9.6608764  27.8960130
  40.9301657   9.8431147  28.1028806  30.9606881  13.1926641  21.1538954
  30.8443139  12.5171545  21.8220038  31.0709140  12.7059015  20.3371107
  33.3038421  12.6536788  24.8585643  32.9396629  12.1267409  25.5698565
  34.1605537  12.2635257  24.6852129  39.2087722   3.9431121  32.1216909
  38.8771047   4.8126532  31.8978124  38.6133335   3.6267405  32.8010940
  32.9443908   7.6826688  19.8546992  33.1118311   8.5506925  20.2217463
  32.7541077   7.8453970  18.9308281  35.7019242  16.1443667  31.5212822
  35.4019965  17.0468706  31.4128629  35.3570301  15.8775850  32.3733975
  29.1531723  12.5957464  27.5549527  28.2282220  12.4633678  27.7627218
  29.4016136  13.3751683  28.0519469  39.1016385   8.6626207  29.2010260
  38.1933263   8.5941616  28.9069020  39.0503981   9.1398152  30.0292085
  32.9233129  10.1384346  20.8393659  32.8032754  10.5841396  21.6779139
  32.2285718  10.4869663  20.2807197  26.5140534  12.2390737  28.3893316
  26.6432915  12.4925216  29.3032727  25.8337985  12.8318445  28.0697971
  33.1757251  10.0815853  37.1445157  32.3990585  10.6409773  37.1348021
  33.8147814  10.5672636  37.6660027  40.9678032   6.8642646  30.9788133
  40.3252412   7.1575179  30.3327928  40.4632960   6.7495566  31.7841330
  38.6218195  10.6105819  21.6673993  39.5336052  10.8433206  21.4921690
  38.1127843  11.1942863  21.1049071  31.4303623  12.8901306  36.7063124
  32.1718308  13.4286350  36.4297947  30.7240609  13.5167595  36.8634676
  36.9058963  15.0330447  35.3035285  37.3142319  14.5912857  34.5589918
  36.1836225  14.4583074  35.5569478  33.2590033   9.9703053  32.6768842
  34.1051228  10.3942467  32.8203491  33.1988671   9.3136678  33.3707405
  37.2287778  15.5931637  29.0587574  36.5996640  15.7577351  28.3563642
  36.8413440  16.0073247  29.8298538  41.1077010  16.5286075  26.4131938
  40.4228048  16.9084976  25.8628971  41.1920859  17.1381402  27.1463886
  36.4089478   7.6307422  34.3350016  36.1650410   8.3849482  33.7984292
  36.6849409   8.0092769  35.1697263  38.3627941  14.1746034  33.0127281
  38.5744837  14.8177794  32.3361663  38.3157690  13.3408351  32.5449212
  35.9654170   6.7863855  29.9163854  35.1038649   7.0845108  30.2080591
  35.9916605   7.0034254  28.9844886  32.7815740  15.3306045  26.3237659
  33.2454085  15.6093748  25.5342282  32.5172538  14.4289490  26.1410750
  31.7184626  11.4529198  23.1327224  32.4208669  11.9050241  23.6001151
  31.3865254  10.8113017  23.7607118  30.1664987  10.0440954  37.5078434
  29.5363648  10.7257235  37.7413831  30.0601075   9.9324036  36.5631572
  25.4609960   9.7112750  28.4344358  24.6709014   9.9670279  27.9584469
  25.9521207  10.5261088  28.5396398  39.4773769  17.0517990  31.1849639
  40.2991213  16.6498177  30.9032320  39.4736172  16.9486224  32.1365755
  27.4124705  10.0757330  25.3927835  26.6155868  10.1876024  25.9111330
  27.1850297  10.4143982  24.5268725  33.2430373  16.6002033  33.3410349
  33.3074805  17.0622440  34.1768521  32.5341297  15.9699398  33.4692659
  23.7447663   9.9643241  30.8659349  23.9955701  10.8490251  31.1316925
  24.2807211   9.7847842  30.0934441  47.5679762  13.3956738  27.5334610
  46.8143471  12.8264136  27.3778615  47.7027303  13.3619403  28.4805245
  32.9578390  18.2670140  23.2089330  32.8224065  19.1121676  23.6374177
  33.4988203  18.4689418  22.4455263  29.4445730   4.3461720  39.8703685
  29.0512676   3.7927919  40.5451329  30.2611870   4.6572299  40.2610202
  26.4107788  15.7845578  23.7817255  26.9232308  16.5788829  23.9322819
  27.0630501  15.0871869  23.7150856  32.3613691   5.7619599  37.4623941
  33.1023404   6.3626752  37.3828404  32.5931614   5.0197237  36.9041984
  27.5055029  10.9475967  35.7402171  27.3908544  10.0461224  36.0409270
  26.6499547  11.1939663  35.3886988  34.5846867  18.8893707  37.3389672
  34.1410721  18.1030085  37.0210576  35.2464080  19.0772857  36.6733562
  36.6828105  19.1696507  35.3671073  36.6646580  19.9905388  34.8751342
  37.6048025  19.0450582  35.5921214  33.1401159  16.6840636  36.2094581
  33.6729496  15.9228924  35.9793889  32.6115240  16.3914288  36.9518736
  36.3070854   1.7900702  31.7388223  35.9635123   2.6802344  31.6627334
  36.6749816   1.6002360  30.8757808  24.3756704  14.1134233  24.5576825
  25.2131926  14.5231241  24.3410533  24.5534972  13.1733675  24.5277019
  36.2721137  11.7809313  20.2460658  35.7567760  12.5513918  20.4849046
  35.9998445  11.1074449  20.8693720  33.8568248   6.6259014  25.3045897
  33.0009844   6.2365864  25.1251535  34.2695199   6.7050975  24.4445682
  35.3867394   4.1605357  29.7037456  34.8832190   4.1235493  28.8905262
  35.6798001   5.0698100  29.7634113  31.6310280   4.2444087  28.7103638
  32.4963277   4.0486896  28.3509528  31.6987789   4.0154439  29.6372995
  41.2455411  14.5341668  22.1813832  40.4684854  14.1952827  21.7368994
  41.9246892  14.5394291  21.5068797  36.0607440   9.6536405  22.0720439
  35.7557575   9.9682555  22.9230583  37.0137882   9.7317825  22.1147772
  34.5053872  15.8126629  23.7213393  33.9775233  15.0779388  23.4086631
  34.0041374  16.5901305  23.4753362  39.4846718  14.0075649  28.8380440
  38.8270392  14.6974911  28.9260568  40.2887117  14.3972081  29.1814426
  29.2372599   6.4746295  26.0820005  29.8116351   6.2521476  25.3493198
  29.8243582   6.5434990  26.8348606  38.2952176  12.3620022  26.8884381
  38.8084058  12.9950014  27.3906091  38.9453400  11.7621217  26.5227741
  29.5642186   8.5050756  20.1015890  28.7279499   8.8425443  20.4225165
  29.4246956   8.3699736  19.1643027  31.5395267   3.3487544  24.8095074
  30.8859679   3.0336561  24.1851689  31.4975741   2.7263284  25.5354897
  32.6506472  13.6306839  16.7248366  31.7433534  13.3996092  16.9239515
  33.1477504  12.8344458  16.9122348  35.5574551  22.3404346  19.6445053
  34.8836249  22.6436043  20.2530010  35.9440373  23.1433427  19.2950510
  34.7733007   9.8369477  29.1342722  33.8555569  10.0584424  28.9764410
  35.1893151   9.9115788  28.2754429  35.5568055  11.2360893  24.2645402
  36.3039874  11.7482290  23.9552524  35.8259645  10.9144946  25.1249796
  33.8294705  13.7319434  21.2472356  32.9205925  13.4478467  21.3444826
  33.8589789  14.1518512  20.3875663  39.0613973  17.3426023  25.0163524
  38.6076300  16.5016933  25.0728715  38.4307939  17.9787422  25.3538304
  38.0046892   8.2718009  26.2464191  37.2669649   7.7595396  26.5774434
  38.2573666   7.8318391  25.4347468  37.5046912  19.1802520  25.9513342
  37.7969886  19.7407577  25.2325708  38.0145532  19.4731081  26.7066501
  24.3982876  11.4524948  25.2287559  24.2007275  10.8594309  24.5038625
  23.8429540  11.1477158  25.9463497  32.3779599  11.3448054  27.3482152
  32.4328209  10.3921891  27.2724628  31.5670801  11.5007494  27.8323450
  33.5270793  15.2728178  18.5860435  33.0890223  14.5564036  18.1266072
  34.2681234  15.5004292  18.0245526  30.3171959   9.9625114  25.1072531
  29.5039825  10.2619285  25.5137723  30.8130953   9.5680803  25.8247013
  35.9146171  10.4266939  33.9387425  36.2695559  10.6538412  34.7981890
  36.5618302  10.7585315  33.3164680  41.6443908  13.5485375  24.6436754
  41.5061806  13.7386971  23.7157943  41.2880127  14.3104757  25.1004805
  29.8086034   7.5343470  30.7233766  30.4485413   7.3932229  30.0256729
  28.9763565   7.2477983  30.3472368  41.6713287  15.6161902  29.6548025
  42.1049794  15.5237191  30.5031079  42.3844868  15.5919402  29.0168041
  26.8929101  10.9788982  22.9128511  25.9626689  10.9173437  23.1298473
  26.9886573  10.4564935  22.1165152  26.8114650   7.5043795  25.5006752
  27.0721468   8.4189128  25.3915913  27.6331823   7.0368237  25.6503365
  28.2839576   8.9181552  32.6705577  28.9562629   8.7098914  32.0218226
  27.4569362   8.7203638  32.2310809  42.5328837  15.6585602  32.1880911
  42.7264727  16.5631413  32.4340185  42.4329455  15.1993021  33.0219496
  34.1865148   5.5443493  34.6871238  33.5393063   6.2433442  34.5935714
  34.9566163   5.9779637  35.0547486  37.5943946  15.8092345  37.7621791
  37.4429452  15.5802897  36.8451875  37.5848625  16.7662946  37.7753136
  34.3629282  13.3824258  32.7468058  35.2921342  13.5335417  32.5737025
  33.9420312  13.4708278  31.8916704  33.7565766  22.5084019  21.8592132
  33.9317522  22.0372062  22.6737754  33.0698554  23.1349785  22.0873392
  34.7122829  16.7856525  27.9055433  34.3772662  16.7457295  28.8013083
  34.2126775  16.1201241  27.4325843  28.6867073  12.1924155  33.4308014
  28.5486871  11.4604394  34.0319553  29.5971996  12.1033055  33.1492202
  37.6482021  14.1312559  18.1792493  37.0311191  13.4059387  18.0825545
  37.1798509  14.8921919  17.8359567  31.3149374  11.9044114  32.9191694
  32.0248992  11.2637306  32.8778312  31.2718682  12.1557009  33.8417875
  39.3036152  18.8411468  35.8398273  39.2448698  18.1570688  35.1728856
  39.7055671  19.5830458  35.3878899  30.0278308   8.8909332  34.7387333
  29.4915665   8.4400071  35.3908930  29.4395016   9.0255241  33.9957798
  29.4380567   8.3497983  17.3013797  28.5610033   8.2286784  16.9376044
  29.9138320   7.5584062  17.0492686  39.3053560  16.8051051  34.0712253
  38.4180338  16.4676973  34.1938652  39.8752111  16.0734083  34.3081018
  20.9582707  13.1375143  27.3955304  21.6453747  12.8236873  26.8076319
  20.8030835  14.0416508  27.1222555  25.7617429   8.0265340  31.8240328
  25.6775618   7.4191009  31.0890738  24.9400135   8.5174358  31.8249824
  32.6244493  20.7024274  24.5476317  31.8412014  21.2445954  24.6414542
  33.3237238  21.2198253  24.9470559  35.9341143   6.5118903  27.1910523
  36.4309842   5.7588866  26.8711593  35.1628124   6.5483220  26.6253732
  43.7870900  12.2159269  28.8328814  43.7760776  13.0983984  28.4622747
  42.9188280  11.8630820  28.6383351  37.0170923  15.2690591  24.7648946
  36.0827202  15.3892053  24.5953651  37.1947592  14.3663057  24.5008956
  32.5176111   8.6536286  26.9182207  32.1473899   8.1007327  27.6063113
  33.0135204   8.0494420  26.3657207  40.4043475  11.1107910  25.2998980
  40.8703927  11.9435901  25.2259283  40.8550975  10.6452891  26.0044239
  38.4719706  17.4551731  22.2985132  38.7479550  17.3408326  23.2079006
  37.6024205  17.0569216  22.2597305  38.3760138   3.4788497  29.3389882
  37.4623217   3.7092724  29.5072089  38.8053239   3.5626941  30.1903914
  38.1466596  11.6678389  31.8389776  37.4938046  11.9154296  31.1842228
  38.5246976  10.8542527  31.5052253  35.4415935  20.6306267  23.2032994
  35.9703702  20.1198722  22.5903157  35.7044155  20.3148797  24.0678528
  34.1954169  12.4098200  38.3255813  33.5194806  12.3092329  38.9958188
  35.0181803  12.2537414  38.7891810  20.5350683  11.2175737  29.6672771
  20.5734782  10.6839327  30.4609889  20.0290976  10.6910942  29.0483748
  27.9141445   6.0640277  33.1635313  27.9782772   6.9255108  32.7512711
  27.8508565   5.4514279  32.4307672  27.3893718   8.1363410  36.8108348
  28.0165756   7.7540487  37.4245872  26.5321637   7.9177612  37.1764040
  37.7887826  18.5426385  38.4162083  38.3327730  19.1556343  37.9217038
  37.2074671  19.1005963  38.9329096  24.1659260   9.9439839  22.7426703
  24.4612701   9.0350517  22.6893756  23.2647296   9.9227578  22.4207705
  27.6953507   8.0195835  28.7254251  26.9740093   8.6331803  28.5861724
  28.4846763   8.5553600  28.6470897  38.1380248  19.4656123  31.1756661
  37.1910583  19.3461474  31.1034988  38.4863021  18.5778621  31.2582922
  30.4979821   5.3550262  34.9994903  31.0214223   5.6012558  35.7621212
  30.2792154   6.1870297  34.5798040  25.8947102   7.6253936  22.8666028
  25.5659808   6.7451315  22.6841134  26.2486473   7.5701605  23.7542417
  35.1426681  19.2608839  27.3761013  34.9951643  18.3325546  27.5568583
  35.9680174  19.2828930  26.8918088  29.0088925   7.9126906  23.2341505
  29.3484998   8.4412827  22.5120114  29.4561046   8.2507312  24.0100072
  38.7460803  20.0837398  28.4625886  39.6707350  19.8780259  28.3250337
  38.5776106  19.8353799  29.3715228  31.7032366   6.2963957  32.6844573
  31.3629186   5.4971770  33.0865253  30.9971372   6.5965668  32.1121407
  32.3548838   3.3813269  31.1371896  33.1774907   2.9073748  31.0150787
  32.5986901   4.1603753  31.6370583  30.9957072   6.4101528  21.4334798
  31.7165435   6.7882781  20.9298515  30.3722376   7.1290405  21.5369776
  35.1388195   7.1146677  22.3693130  35.3551810   7.9971315  22.0681959
  34.6582262   6.7232890  21.6398772  29.8787417  10.0732390  28.9463875
  29.7331997  10.3872693  29.8388157  29.4012620  10.6917290  28.3934774
  31.7383799   7.0634938  28.9944765  31.7245368   6.1676031  28.6577063
  32.4556228   7.0705602  29.6283051  33.5909930   7.4972278  31.0397892
  33.3327708   8.4189349  31.0382223  33.0594971   7.1002713  31.7298356
  38.5356119  20.6023065  23.8187977  38.7092996  20.0369488  23.0661830
  39.0285010  21.4023960  23.6367467  24.3533079  12.6137734  31.8851536
  23.8086547  13.3897542  32.0171811  25.2312429  12.9608539  31.7270658
  31.1420695   5.9449318  24.2632335  31.2636607   5.0165964  24.4623222
  30.8522738   5.9588004  23.3510650  34.0111886   3.6304229  27.3999055
  34.0333583   3.6943562  26.4451034  34.4279945   2.7908737  27.5939561
  44.3895510  13.3659488  25.4378277  44.8326656  12.6166813  25.0397400
  43.5122020  13.3569625  25.0552009  39.5231291  19.9189830  20.9184876
  40.2182196  20.5396522  21.1372190  39.8654442  19.0685181  21.1937254
  25.1399101  11.7407631  34.7781693  24.3980837  11.8890266  35.3646324
  24.8191845  12.0015896  33.9148443  41.4222715  17.3689535  22.4472207
  41.9474039  17.7076808  21.7221527  41.3345067  16.4336551  22.2635341
  23.7864319  17.5459386  27.7681021  22.9496228  17.1181560  27.5865023
  23.7587965  17.7391829  28.7051813  30.6261775   7.4581316  38.4722267
  30.6749930   8.3343438  38.0900037  31.1684289   6.9158709  37.8993911
  41.1116621  18.0022439  37.7523404  40.3212164  17.9846578  37.2127904
  40.8749975  18.5410733  38.5072441  41.2314496  14.8514905  35.0656133
  41.2812501  14.6864913  36.0071656  41.1228419  13.9842164  34.6754014
  30.1150754  17.5303451  22.3548222  30.2638875  18.2138915  21.7014895
  30.9217198  17.5108541  22.8697678  38.5218258  10.8345833  36.3815440
  39.4228121  10.6952298  36.0899438  38.5966233  11.0000288  37.3213617
  32.8561063   8.2112688  35.2268626  31.9864373   8.5046254  34.9551215
  33.0920544   8.7953133  35.9475890  42.7332692  17.2711847  35.3098155
  42.4417501  17.6341827  36.1461616  42.1204824  16.5578855  35.1311487
  43.9328375  14.8364727  27.8300725  44.7675266  15.2754531  27.9938285
  44.0687504  14.3603380  27.0108971  40.9819881  12.3944461  33.7778213
  41.4574002  12.5872108  32.9697064  40.0585446  12.4503647  33.5321596
  27.8703387  13.5568629  23.3609291  27.6249429  12.6530959  23.5589501
  28.0399302  13.5585779  22.4188769  35.5600097   4.4292305  32.7434046
  36.0782041   5.1653332  32.4180535  35.2055230   4.7356298  33.5780806
  27.1399035   9.2896986  20.8595452  26.4468280   9.3641341  20.2035488
  26.8950787   8.5257330  21.3816969  33.6146160  20.0251581  19.8259969
  33.0420127  20.6441768  19.3730441  34.1878954  20.5750943  20.3599891
  39.6821550   9.2710221  32.0106518  40.6338973   9.3708319  32.0318742
  39.5125000   8.4788490  32.5204603  37.7035929   6.3565805  32.1965919
  37.1085861   6.6370817  31.5012408  37.4185626   6.8459706  32.9682660
  36.8343420  20.3088731  20.9568552  37.7674093  20.2434293  21.1601427
  36.7466632  21.1444998  20.4983084  39.4631436  19.6254602  17.9172499
  39.3845068  19.2914465  18.8108257  40.2841103  20.1176370  17.9163972
  42.1609627  12.4916341  31.1248818  42.1285948  11.5532342  31.3108502
  42.7710251  12.5700378  30.3914643  33.9992958  11.3612394  17.1676022
  34.9452063  11.2318602  17.2364440  33.6207203  10.6227056  17.6445450
  42.3104116   9.2827385  31.1707101  41.7943165   8.4985841  30.9837030
  43.1944065   8.9546101  31.3353620  39.9714843   3.0268400  27.1302914
  39.7739664   2.7183488  28.0146246  40.5814548   3.7530039  27.2600844
  47.9786177  13.5532348  30.2654855  48.7089566  13.2917636  30.8262558
  47.3693123  12.8161070  30.3056923  46.0601474  11.6940211  30.8629306
  45.3334638  11.5596175  30.2545797  45.6448761  12.0017039  31.6686024
  33.8831651  15.4130140  38.6276679  34.8034660  15.5908739  38.8216725
  33.8481234  14.4686186  38.4756378  32.1835876   9.2862370  17.1030907
  31.2767331   8.9895483  17.1793621  32.4611857   8.9892189  16.2365193
  23.1013816  10.6068734  27.5529953  22.7816600   9.7534042  27.2604327
  22.5547244  10.8217312  28.3087921  26.8793723  13.3231175  31.2699460
  27.0979733  14.2548283  31.2887494  27.2919497  12.9639149  32.0554264
  33.7997941   3.8299260  23.2575148  32.9898670   3.4846345  23.6330394
  34.4882358   3.5206804  23.8462760  35.7288490   2.9077307  24.8799445
  36.2819528   3.3272760  25.5389468  35.9658576   1.9813055  24.9222401
  31.7521589   8.8964381  40.6602209  31.6518316   9.8458738  40.5914300
  31.5343131   8.5682620  39.7878279  30.9534660   6.1449306  17.2442886
  31.8153824   6.4704204  17.5038704  31.1385004   5.3580802  16.7315952
  22.9702076  14.2271645  29.5223075  22.2765547  13.8125598  29.0093029
  23.7175067  14.2692182  28.9256494  39.1067297   5.0177832  24.3878109
  38.5265966   5.6762636  24.0056162  38.8403229   4.1955177  23.9765527
  37.5570863   4.4182890  26.5899430  38.0570641   4.5299424  25.7813748
  38.2006471   4.1143943  27.2300238  31.6152859  12.3261519  39.4767271
  31.1319941  13.1261880  39.6831160  31.7013798  12.3369464  38.5234715
  24.8838818  14.1589899  27.3989090  24.8609507  14.2577586  26.4470973
  25.1939455  15.0055050  27.7206256  28.1325578  14.7867170  34.0806502
  28.9518467  15.2811249  34.1041339  28.4062386  13.8699138  34.0524070
  37.8892175   7.1777923  23.4434458  37.0018030   7.4627573  23.2254652
  38.3046164   7.0171686  22.5961734  41.2406711   7.2024444  27.1588797
  42.0167101   7.6920896  27.4313414  40.5154845   7.6282498  27.6160666
  43.6779269   7.9152063  28.2162737  44.2723760   7.6747799  27.5056046
  43.7505853   7.1959193  28.8436274  37.0335388  16.9422597  17.5382477
  37.7371238  17.1472600  18.1540133  36.3098037  17.5099359  17.8031561
  37.8633198  12.6932458  23.6584748  37.8068400  13.1501010  22.8192380
  38.4161541  11.9323143  23.4807590  41.6738004   8.4822190  24.4834867
  41.4174939   8.0818826  25.3143075  41.0490872   9.1965984  24.3585006
  45.9850342  11.2218264  26.9906159  45.4249900  11.2911453  27.7637721
  45.3793846  11.0459248  26.2705655  38.9422086  17.3805126  19.5880938
  39.7767689  16.9486325  19.4058412  38.7806428  17.2087140  20.5157832
  38.5967978  13.8837240  20.9537277  38.5416781  13.7181511  20.0125721
  37.9714033  14.5913273  21.1099467  23.3860493   9.1205304  34.7798699
  24.0319356   8.6104258  35.2685924  23.1777644   9.8573986  35.3542124
  35.9113885  16.1886152  40.2790840  36.7805044  16.3626804  39.9177475
  35.4320636  17.0080568  40.1566569  31.9064103   3.3845349  20.5322595
  31.8942773   4.3287189  20.6890866  32.7987525   3.2015494  20.2382056
  27.7257984   6.2672921  38.8773713  28.5889445   5.9109726  39.0877038
  27.1523394   5.9286816  39.5649118  47.5706361  27.8974778  29.6836114
  48.2084771  27.7781525  28.9799454  47.4527203  28.8455621  29.7424066
  44.3796067  27.8502206  29.6197639  44.0414578  27.7343270  28.7318174
  45.2485835  27.4493371  29.5998645  40.2382883  29.7037682  25.6094530
  39.6747748  29.6127619  24.8410818  40.1235278  28.8837587  26.0897022
  44.8615850  29.0037057  35.5783845  44.8504491  28.6089856  34.7064348
  45.0236489  28.2703130  36.1717616  45.8182441  33.3708650  20.9208995
  45.1670421  33.9562730  20.5343009  46.6126804  33.9014845  20.9804032
  39.7438068  30.4597787  21.3196129  40.5168944  29.9126774  21.1809005
  40.0963467  31.3242036  21.5310591  41.5823111  31.7874169  34.5263028
  41.2912977  32.6919800  34.4109695  42.2180095  31.8290697  35.2407098
  42.5079318  29.1651018  31.1164388  43.1042890  28.9407040  30.4021351
  42.5654289  28.4235763  31.7189836  42.0804346  26.6190453  18.9514579
  42.3329867  26.0971974  18.1898042  41.1428905  26.4556598  19.0541263
  47.1247629  25.6226231  26.7589322  47.9110718  25.2045655  26.4079739
  47.3886333  26.5272324  26.9270971  47.2957706  31.0599082  21.4577979
  46.6603539  31.1333708  22.1698884  46.9655113  31.6492681  20.7797058
  52.5256056  25.5601465  27.6622301  53.2581228  24.9900681  27.8960130
  51.7695412  25.1723065  28.1028806  41.8000635  28.5218559  21.1538954
  41.6836893  27.8463462  21.8220038  41.9102895  28.0350933  20.3371107
  44.1432176  27.9828706  24.8585643  43.7790383  27.4559327  25.5698565
  44.9999292  27.5927175  24.6852129  50.0481477  19.2723039  32.1216909
  49.7164801  20.1418450  31.8978124  49.4527090  18.9559323  32.8010940
  43.7837663  23.0118606  19.8546992  43.9512065  23.8798842  20.2217463
  43.5934832  23.1745887  18.9308281  46.5412996  31.4735585  31.5212822
  46.2413719  32.3760623  31.4128629  46.1964056  31.2067768  32.3733975
  49.9410140  23.9918125  29.2010260  49.0327017  23.9233533  28.9069020
  49.8897736  24.4690070  30.0292085  43.7626884  25.4676263  20.8393659
  43.6426509  25.9133314  21.6779139  43.0679472  25.8161581  20.2807197
  41.5233776  38.2379905  24.4883790  41.4457806  39.1887730  24.5672270
  40.9195419  37.8925778  25.1458716  44.0151006  25.4107770  37.1445157
  43.2384340  25.9701691  37.1348021  44.6541569  25.8964553  37.6660027
  51.8071786  22.1934563  30.9788133  51.1646167  22.4867096  30.3327928
  51.3026715  22.0787484  31.7841330  49.4611950  25.9397736  21.6673993
  50.3729806  26.1725123  21.4921690  48.9521597  26.5234781  21.1049071
  42.2697378  28.2193224  36.7063124  43.0112062  28.7578268  36.4297947
  41.5634363  28.8459513  36.8634676  47.7452718  30.3622364  35.3035285
  48.1536074  29.9204775  34.5589918  47.0229979  29.7874992  35.5569478
  44.0983788  25.2994971  32.6768842  44.9444983  25.7234385  32.8203491
  44.0382425  24.6428595  33.3707405  48.0681532  30.9223555  29.0587574
  47.4390395  31.0869269  28.3563642  47.6807194  31.3365164  29.8298538
  51.9470764  31.8577993  26.4131938  51.2621802  32.2376894  25.8628971
  52.0314613  32.4673319  27.1463886  47.2483233  22.9599339  34.3350016
  47.0044165  23.7141400  33.7984292  47.5243163  23.3384687  35.1697263
  49.2021696  29.5037952  33.0127281  49.4138591  30.1469712  32.3361663
  49.1551444  28.6700268  32.5449212  46.8047925  22.1155772  29.9163854
  45.9432404  22.4137026  30.2080591  46.8310359  22.3326171  28.9844886
  43.6209494  30.6597963  26.3237659  44.0847840  30.9385666  25.5342282
  43.3566292  29.7581408  26.1410750  42.5578380  26.7821115  23.1327224
  43.2602424  27.2342159  23.6001151  42.2259009  26.1404934  23.7607118
  41.0058742  25.3732872  37.5078434  40.3757402  26.0549153  37.7413831
  40.8994830  25.2615954  36.5631572  50.3167524  32.3809907  31.1849639
  51.1384967  31.9790094  30.9032320  50.3129927  32.2778141  32.1365755
  44.0824127  31.9293951  33.3410349  44.1468560  32.3914358  34.1768521
  43.3735051  31.2991315  33.4692659  43.7972145  33.5962058  23.2089330
  43.6617820  34.4413594  23.6374177  44.3381957  33.7981336  22.4455263
  40.2839484  19.6753638  39.8703685  39.8906430  19.1219836  40.5451329
  41.1005625  19.9864216  40.2610202  37.2501542  31.1137496  23.7817255
  37.7626063  31.9080746  23.9322819  37.9024255  30.4163786  23.7150856
  39.0596427  34.2303252  25.8640008  39.2363055  35.1521217  25.6760992
  39.8553260  33.9161672  26.2934388  43.2007445  21.0911517  37.4623941
  43.9417159  21.6918670  37.3828404  43.4325368  20.3489155  36.9041984
  38.3448783  26.2767884  35.7402171  38.2302299  25.3753141  36.0409270
  37.4893301  26.5231581  35.3886988  45.4240621  34.2185625  37.3389672
  44.9804475  33.4322003  37.0210576  46.0857835  34.4064775  36.6733562
  40.1827742  35.7481426  31.8650350  40.7335167  35.6198489  31.0927344
  39.3439218  36.0476315  31.5145243  47.5221859  34.4988424  35.3671073
  47.5040335  35.3197305  34.8751342  48.4441779  34.3742500  35.5921214
  43.9794913  32.0132554  36.2094581  44.5123250  31.2520842  35.9793889
  43.4508995  31.7206206  36.9518736  47.1464608  17.1192620  31.7388223
  46.8028878  18.0094262  31.6627334  47.5143571  16.9294278  30.8757808
  47.1114891  27.1101231  20.2460658  46.5961515  27.8805836  20.4849046
  46.8392200  26.4366367  20.8693720  44.6962002  21.9550932  25.3045897
  43.8403598  21.5657782  25.1251535  45.1088954  22.0342893  24.4445682
  46.2261149  19.4897275  29.7037456  45.7225944  19.4527410  28.8905262
  46.5191756  20.3990018  29.7634113  42.4704035  19.5736005  28.7103638
  43.3357031  19.3778813  28.3509528  42.5381544  19.3446357  29.6372995
  52.0849165  29.8633586  22.1813832  51.3078608  29.5244745  21.7368994
  52.7640646  29.8686209  21.5068797  46.9001194  24.9828323  22.0720439
  46.5951330  25.2974472  22.9230583  47.8531636  25.0609743  22.1147772
  45.3447626  31.1418546  23.7213393  44.8168988  30.4071306  23.4086631
  44.8435129  31.9193223  23.4753362  50.3240472  29.3367567  28.8380440
  49.6664147  30.0266828  28.9260568  51.1280871  29.7263999  29.1814426
  40.0766354  21.8038213  26.0820005  40.6510106  21.5813394  25.3493198
  40.6637336  21.8726907  26.8348606  49.1345931  27.6911940  26.8884381
  49.6477813  28.3241931  27.3906091  49.7847155  27.0913135  26.5227741
  40.4035941  23.8342674  20.1015890  39.5673253  24.1717360  20.4225165
  40.2640710  23.6991653  19.1643027  42.3789021  18.6779462  24.8095074
  41.7253434  18.3628479  24.1851689  42.3369496  18.0555202  25.5354897
  43.4900226  28.9598757  16.7248366  42.5827288  28.7288010  16.9239515
  43.9871258  28.1636376  16.9122348  46.3968305  37.6696264  19.6445053
  45.7230004  37.9727961  20.2530010  46.7834127  38.4725344  19.2950510
  45.6126762  25.1661395  29.1342722  44.6949323  25.3876342  28.9764410
  46.0286905  25.2407706  28.2754429  46.3961810  26.5652811  24.2645402
  47.1433629  27.0774208  23.9552524  46.6653399  26.2436864  25.1249796
  44.6688460  29.0611352  21.2472356  43.7599679  28.7770384  21.3444826
  44.6983544  29.4810430  20.3875663  49.9007727  32.6717941  25.0163524
  49.4470054  31.8308851  25.0728715  49.2701694  33.3079339  25.3538304
  48.8440647  23.6009927  26.2464191  48.1063404  23.0887313  26.5774434
  49.0967420  23.1610309  25.4347468  48.3440666  34.5094438  25.9513342
  48.6363641  35.0699495  25.2325708  48.8539287  34.8022999  26.7066501
  48.9452274  16.3786179  26.8405961  49.2511151  15.5183542  26.5531876
  49.6704879  16.9703799  26.6404955  43.2173354  26.6739972  27.3482152
  43.2721964  25.7213809  27.2724628  42.4064556  26.8299411  27.8323450
  44.3664548  30.6020095  18.5860435  43.9283977  29.8855954  18.1266072
  45.1074988  30.8296210  18.0245526  41.1565714  25.2917032  25.1072531
  40.3433579  25.5911202  25.5137723  41.6524708  24.8972721  25.8247013
  43.3074292  35.2874789  27.0406795  43.2650470  35.5135635  26.1115327
  44.2236990  35.0538163  27.1892597  46.7539925  25.7558856  33.9387425
  47.1089313  25.9830329  34.7981890  47.4012057  26.0877233  33.3164680
  52.4837662  28.8777292  24.6436754  52.3455561  29.0678888  23.7157943
  52.1273881  29.6396675  25.1004805  52.5107042  30.9453819  29.6548025
  52.9443549  30.8529108  30.5031079  53.2238623  30.9211320  29.0168041
  41.4240092  32.1637818  26.8368758  42.2180691  31.6688138  26.6351333
  40.7131785  31.6355681  26.4736464  46.2434937  34.5455913  31.1881126
  46.2971959  35.1146850  31.9558842  45.3749718  34.7157798  30.8235163
  53.3722591  30.9877520  32.1880911  53.5658482  31.8923330  32.4340185
  53.2723210  30.5284939  33.0219496  45.0258902  20.8735410  34.6871238
  44.3786817  21.5725360  34.5935714  45.7959918  21.3071554  35.0547486
  48.4337700  31.1384263  37.7621791  48.2823207  30.9094814  36.8451875
  48.4242380  32.0954864  37.7753136  45.2023037  28.7116175  32.7468058
  46.1315097  28.8627335  32.5737025  44.7814067  28.8000196  31.8916704
  44.0011368  32.7366840  30.5166595  43.8622454  32.3685624  31.3892533
  43.2125965  33.2514479  30.3450553  44.5959520  37.8375936  21.8592132
  44.7711276  37.3663979  22.6737754  43.9092308  38.4641702  22.0873392
  45.5516583  32.1148442  27.9055433  45.2166416  32.0749212  28.8013083
  45.0520529  31.4493158  27.4325843  48.4875775  29.4604477  18.1792493
  47.8704946  28.7351305  18.0825545  48.0192264  30.2213837  17.8359567
  50.1429907  34.1703385  35.8398273  50.0842453  33.4862605  35.1728856
  50.5449425  34.9122375  35.3878899  40.8672062  24.2201250  34.7387333
  40.3309419  23.7691988  35.3908930  40.2788771  24.3547159  33.9957798
  39.1620606  40.9865299  28.6331992  39.4017204  41.6183823  29.3111010
  38.3189802  40.6353339  28.9197351  40.2774321  23.6789901  17.3013797
  39.4003787  23.5578702  16.9376044  40.7532074  22.8875979  17.0492686
  50.1447314  32.1342969  34.0712253  49.2574093  31.7968891  34.1938652
  50.7145865  31.4026000  34.3081018  43.6748467  36.7944421  31.0373496
  43.6018639  37.5999393  31.5492800  43.2325861  36.9936387  30.2121517
  43.4638247  36.0316192  24.5476317  42.6805769  36.5737872  24.6414542
  44.1630992  36.5490171  24.9470559  46.7734897  21.8410821  27.1910523
  47.2703597  21.0880783  26.8711593  46.0021879  21.8775138  26.6253732
  54.6264655  27.5451186  28.8328814  54.6154531  28.4275902  28.4622747
  53.7582034  27.1922737  28.6383351  46.1347151  36.6931256  33.1931655
  46.8475123  37.3278720  33.1207556  45.6437180  36.7895121  32.3771656
  47.8564678  30.5982508  24.7648946  46.9220957  30.7183971  24.5953651
  48.0341346  29.6954975  24.5008956  43.3569866  23.9828204  26.9182207
  42.9867653  23.4299244  27.6063113  43.8528958  23.3786337  26.3657207
  51.2437229  26.4399827  25.2998980  51.7097681  27.2727819  25.2259283
  51.6944730  25.9744809  26.0044239  41.1859065  34.4425699  34.0137225
  41.8868524  35.0762182  34.1666620  40.7154180  34.7840431  33.2532865
  49.3113460  32.7843649  22.2985132  49.5873304  32.6700243  23.2079006
  48.4417959  32.3861134  22.2597305  49.2153892  18.8080414  29.3389882
  48.3016972  19.0384641  29.5072089  49.6446993  18.8918859  30.1903914
  48.9860350  26.9970306  31.8389776  48.3331801  27.2446214  31.1842228
  49.3640730  26.1834445  31.5052253  45.9467524  37.0330000  25.9417946
  46.1289919  36.2151656  26.4045698  46.7700510  37.2497692  25.5042836
  46.2809690  35.9598185  23.2032994  46.8097456  35.4490639  22.5903157
  46.5437909  35.6440715  24.0678528  45.0347924  27.7390117  38.3255813
  44.3588561  27.6384247  38.9958188  45.8575557  27.5829331  38.7891810
  39.6365438  37.0113301  25.9630770  38.9675813  37.4959429  25.4794810
  39.4978308  37.2582522  26.8774149  43.7770706  39.0457045  32.5613429
  44.3289014  39.2088666  33.3262514  44.1176900  39.6361483  31.8893454
  38.2287472  23.4655327  36.8108348  38.8559511  23.0832405  37.4245872
  37.3715391  23.2469529  37.1764040  48.6281581  33.8718302  38.4162083
  49.1721485  34.4848261  37.9217038  48.0468426  34.4297881  38.9329096
  46.9139094  36.9939020  29.5477111  46.7890233  36.1928760  29.0388056
  47.5718185  37.4885214  29.0591081  48.9774002  34.7948041  31.1756661
  48.0304338  34.6753392  31.1034988  49.3256775  33.9070539  31.2582922
  41.3373575  20.6842179  34.9994903  41.8607977  20.9304476  35.7621212
  41.1185909  21.5162214  34.5798040  36.7340856  22.9545854  22.8666028
  36.4053563  22.0743233  22.6841134  37.0880227  22.8993523  23.7542417
  45.9820435  34.5900757  27.3761013  45.8345398  33.6617464  27.5568583
  46.8073929  34.6120847  26.8918088  39.8482680  23.2418824  23.2341505
  40.1878752  23.7704745  22.5120114  40.2954800  23.5799230  24.0100072
  49.5854557  35.4129315  28.4625886  50.5101105  35.2072177  28.3250337
  49.4169861  35.1645717  29.3715228  42.5426120  21.6255875  32.6844573
  42.2022941  20.8263688  33.0865253  41.8365127  21.9257585  32.1121407
  43.1942592  18.7105187  31.1371896  44.0168662  18.2365665  31.0150787
  43.4380656  19.4895671  31.6370583  41.8350827  21.7393445  21.4334798
  42.5559189  22.1174698  20.9298515  41.2116131  22.4582322  21.5369776
  45.9781950  22.4438594  22.3693130  46.1945564  23.3263232  22.0681959
  45.4976017  22.0524808  21.6398772  42.5777554  22.3926856  28.9944765
  42.5639123  21.4967949  28.6577063  43.2949982  22.3997519  29.6283051
  44.4303685  22.8264196  31.0397892  44.1721462  23.7481266  31.0382223
  43.8988725  22.4294630  31.7298356  49.3749873  35.9314983  23.8187977
  49.5486751  35.3661405  23.0661830  49.8678765  36.7315878  23.6367467
  41.9814450  21.2741236  24.2632335  42.1030361  20.3457882  24.4623222
  41.6916492  21.2879922  23.3510650  44.8505640  18.9596146  27.3999055
  44.8727337  19.0235479  26.4451034  45.2673699  18.1200655  27.5939561
  55.2289265  28.6951406  25.4378277  55.6720411  27.9458731  25.0397400
  54.3515775  28.6861542  25.0552009  50.3625046  35.2481747  20.9184876
  51.0575951  35.8688440  21.1372190  50.7048196  34.3977099  21.1937254
  52.2616469  32.6981453  22.4472207  52.7867793  33.0368726  21.7221527
  52.1738822  31.7628468  22.2635341  43.9236518  36.6115527  34.5762083
  44.2323644  36.3664673  35.4484783  44.7212000  36.8162165  34.0880953
  43.9457130  38.7653436  26.8067460  43.5062120  38.2729815  27.5000316
  44.6965247  38.2226404  26.5659535  41.3931002  34.3091445  28.8789761
  40.7711011  33.6462150  28.5791989  42.0635869  34.3352577  28.1963409
  41.4655529  22.7873233  38.4722267  41.5143685  23.6635356  38.0900037
  42.0078044  22.2450626  37.8993911  51.9510375  33.3314357  37.7523404
  51.1605919  33.3138495  37.2127904  51.7143730  33.8702650  38.5072441
  52.0708250  30.1806823  35.0656133  52.1206255  30.0156830  36.0071656
  51.9622173  29.3134082  34.6754014  40.9544509  32.8595369  22.3548222
  41.1032629  33.5430833  21.7014895  41.7610952  32.8400459  22.8697678
  49.3612013  26.1637751  36.3815440  50.2621875  26.0244216  36.0899438
  49.4359987  26.3292206  37.3213617  43.6954818  23.5404606  35.2268626
  42.8258127  23.8338172  34.9551215  43.9314298  24.1245051  35.9475890
  53.5726447  32.6003764  35.3098155  53.2811255  32.9633745  36.1461616
  52.9598578  31.8870773  35.1311487  54.7722129  30.1656644  27.8300725
  55.6069021  30.6046448  27.9938285  54.9081258  29.6895297  27.0108971
  51.8213635  27.7236379  33.7778213  52.2967757  27.9164025  32.9697064
  50.8979201  27.7795565  33.5321596  38.7097142  28.8860546  23.3609291
  38.4643184  27.9822876  23.5589501  38.8793056  28.8877697  22.4188769
  46.3993852  19.7584223  32.7434046  46.9175796  20.4945250  32.4180535
  46.0448984  20.0648216  33.5780806  37.9792789  24.6188904  20.8595452
  37.2862034  24.6933259  20.2035488  37.7344541  23.8549247  21.3816969
  46.6506446  16.1784505  28.2634943  46.9308200  15.5107694  28.8895370
  47.4357053  16.3713601  27.7509607  44.4539914  35.3543499  19.8259969
  43.8813881  35.9733686  19.3730441  45.0272708  35.9042861  20.3599891
  50.5215304  24.6002139  32.0106518  51.4732727  24.7000237  32.0318742
  50.3518755  23.8080408  32.5204603  48.5429684  21.6857722  32.1965919
  47.9479616  21.9662735  31.5012408  48.2579380  22.1751623  32.9682660
  47.6737174  35.6380649  20.9568552  48.6067847  35.5726211  21.1601427
  47.5860387  36.4736916  20.4983084  50.3025191  34.9546520  17.9172499
  50.2238822  34.6206383  18.8108257  51.1234858  35.4468287  17.9163972
  53.0003382  27.8208259  31.1248818  52.9679702  26.8824260  31.3108502
  53.6104006  27.8992296  30.3914643  44.8386713  26.6904312  17.1676022
  45.7845818  26.5610520  17.2364440  44.4600958  25.9518974  17.6445450
  53.1497870  24.6119302  31.1707101  52.6336919  23.8277759  30.9837030
  54.0337819  24.2838019  31.3353620  50.8108597  18.3560318  27.1302914
  50.6133419  18.0475406  28.0146246  51.4208303  19.0821957  27.2600844
  44.7225405  30.7422058  38.6276679  45.6428415  30.9200657  38.8216725
  44.6874988  29.7978103  38.4756378  43.0229630  24.6154288  17.1030907
  42.1161085  24.3187401  17.1793621  43.3005611  24.3184106  16.2365193
  44.6391696  19.1591178  23.2575148  43.8292424  18.8138263  23.6330394
  45.3276113  18.8498722  23.8462760  46.5682244  18.2369225  24.8799445
  47.1213283  18.6564678  25.5389468  46.8052330  17.3104973  24.9222401
  42.5915343  24.2256298  40.6602209  42.4912070  25.1750655  40.5914300
  42.3736885  23.8974537  39.7878279  41.7928415  21.4741223  17.2442886
  42.6547579  21.7996122  17.5038704  41.9778759  20.6872719  16.7315952
  49.9461051  20.3469750  24.3878109  49.3659720  21.0054554  24.0056162
  49.6796984  19.5247094  23.9765527  48.3964617  19.7474808  26.5899430
  48.8964396  19.8591342  25.7813748  49.0400225  19.4435860  27.2300238
  42.4546613  27.6553437  39.4767271  41.9713695  28.4553797  39.6831160
  42.5407552  27.6661382  38.5234715  38.9719333  30.1159088  34.0806502
  39.7912222  30.6103167  34.1041339  39.2456141  29.1991056  34.0524070
  48.7285929  22.5069840  23.4434458  47.8411784  22.7919491  23.2254652
  49.1439918  22.3463604  22.5961734  52.0800465  22.5316361  27.1588797
  52.8560855  23.0212814  27.4313414  51.3548599  22.9574415  27.6160666
  54.5173024  23.2443980  28.2162737  55.1117515  23.0039716  27.5056046
  54.5899608  22.5251111  28.8436274  36.7370180  37.0877591  28.5305902
  36.6024648  36.3277992  27.9643900  36.3202242  37.8118491  28.0634691
  47.8729143  32.2714515  17.5382477  48.5764993  32.4764517  18.1540133
  47.1491791  32.8391277  17.8031561  48.7026953  28.0224376  23.6584748
  48.6462154  28.4792928  22.8192380  49.2555295  27.2615061  23.4807590
  52.5131759  23.8114108  24.4834867  52.2568693  23.4110744  25.3143075
  51.8884627  24.5257902  24.3585006  39.8939305  37.9846908  28.7424345
  39.7771690  38.9292341  28.6403035  39.0731752  37.6820470  29.1310144
  49.7815840  32.7097044  19.5880938  50.6161444  32.2778243  19.4058412
  49.6200183  32.5379058  20.5157832  49.4361732  29.2129157  20.9537277
  49.3810536  29.0473429  20.0125721  48.8107787  29.9205190  21.1099467
  46.7507639  31.5178069  40.2790840  47.6198799  31.6918722  39.9177475
  46.2714391  32.3372486  40.1566569  42.7457858  18.7137266  20.5322595
  42.7336527  19.6579106  20.6890866  43.6381280  18.5307412  20.2382056
  40.9193820  38.6375170  31.9580273  41.8221066  38.6698781  32.2746768
  40.6931190  37.7075621  31.9726609  42.6747422  37.3906157  28.6190352
  41.7243053  37.3908018  28.5054724  42.9779908  36.6438891  28.1026387
  46.5609977  15.3080043  24.7868532  45.7942373  14.7538530  24.9325214
  46.9720682  15.3801912  25.6482684  38.5651738  21.5964839  38.8773713
  39.4283200  21.2401644  39.0877038  37.9917149  21.2578734  39.5649118
  55.2189821  43.1794123  29.6197639  54.8808333  43.0635188  28.7318174
  56.0879590  42.7785288  29.5998645  51.0776637  45.0329600  25.6094530
  50.5141502  44.9419537  24.8410818  50.9629032  44.2129504  26.0897022
  55.7009604  44.3328975  35.5783845  55.6898245  43.9381773  34.7064348
  55.8630244  43.5995048  36.1717616  48.6241069  46.5280791  28.4478750
  49.4162361  46.1871616  28.0325050  48.8637719  46.6375766  29.3680904
  50.5831823  45.7889705  21.3196129  51.3562699  45.2418692  21.1809005
  50.9357222  46.6533954  21.5310591  52.4216865  47.1166087  34.5263028
  52.1306731  48.0211718  34.4109695  53.0573850  47.1582614  35.2407098
  53.3473072  44.4942935  31.1164388  53.9436645  44.2698958  30.4021351
  53.4048044  43.7527681  31.7189836  52.9198101  41.9482371  18.9514579
  53.1723621  41.4263892  18.1898042  51.9822660  41.7848516  19.0541263
  52.6394389  43.8510477  21.1538954  52.5230648  43.1755380  21.8220038
  52.7496649  43.3642851  20.3371107  54.9825930  43.3120624  24.8585643
  54.6184138  42.7851245  25.5698565  55.8393046  42.9219093  24.6852129
  54.6231417  38.3410523  19.8546992  54.7905820  39.2090760  20.2217463
  54.4328586  38.5037805  18.9308281  50.8319232  43.2541299  27.5549527
  49.9069729  43.1217513  27.7627218  51.0803645  44.0335518  28.0519469
  54.6020638  40.7968181  20.8393659  54.4820263  41.2425232  21.6779139
  53.9073227  41.1453499  20.2807197  48.1928043  42.8974573  28.3893316
  48.3220424  43.1509052  29.3032727  47.5125494  43.4902281  28.0697971
  54.8544760  40.7399688  37.1445157  54.0778094  41.2993608  37.1348021
  55.4935323  41.2256471  37.6660027  53.1091132  43.5485142  36.7063124
  53.8505817  44.0870185  36.4297947  52.4028118  44.1751430  36.8634676
  54.9377542  40.6286889  32.6768842  55.7838737  41.0526302  32.8203491
  54.8776180  39.9720513  33.3707405  54.4603249  45.9889881  26.3237659
  54.9241594  46.2677584  25.5342282  54.1960047  45.0873325  26.1410750
  51.3527330  45.5361362  29.2617423  51.9228687  45.9648631  28.6234907
  51.9435442  45.2543947  29.9601608  53.3972135  42.1113033  23.1327224
  54.0996178  42.5634077  23.6001151  53.0652763  41.4696852  23.7607118
  51.8452496  40.7024790  37.5078434  51.2151157  41.3841071  37.7413831
  51.7388584  40.5907871  36.5631572  47.1397469  40.3696586  28.4344358
  46.3496523  40.6254114  27.9584469  47.6308716  41.1844924  28.5396398
  49.0912214  40.7341165  25.3927835  48.2943377  40.8459859  25.9111330
  48.8637806  41.0727817  24.5268725  54.9217882  47.2585868  33.3410349
  54.9862314  47.7206275  34.1768521  54.2128806  46.6283233  33.4692659
  45.4235172  40.6227076  30.8659349  45.6743210  41.5074086  31.1316925
  45.9594720  40.4431678  30.0934441  51.1233239  35.0045556  39.8703685
  50.7300184  34.4511754  40.5451329  51.9399379  35.3156134  40.2610202
  48.0895297  46.4429414  23.7817255  48.6019817  47.2372664  23.9322819
  48.7418010  45.7455704  23.7150856  49.8990181  49.5595170  25.8640008
  50.0756810  50.4813135  25.6760992  50.6947015  49.2453589  26.2934388
  54.0401200  36.4203435  37.4623941  54.7810913  37.0210588  37.3828404
  54.2719123  35.6781072  36.9041984  49.1842538  41.6059802  35.7402171
  49.0696053  40.7045059  36.0409270  48.3287056  41.8523499  35.3886988
  54.8188668  47.3424472  36.2094581  55.3517005  46.5812760  35.9793889
  54.2902749  47.0498123  36.9518736  46.0544213  44.7718068  24.5576825
  46.8919435  45.1815076  24.3410533  46.2322481  43.8317510  24.5277019
  55.5355757  37.2842849  25.3045897  54.6797353  36.8949700  25.1251535
  55.9482708  37.3634810  24.4445682  53.3097789  34.9027922  28.7103638
  54.1750786  34.7070731  28.3509528  53.3775298  34.6738274  29.6372995
  50.9160108  37.1330130  26.0820005  51.4903860  36.9105312  25.3493198
  51.5031091  37.2018825  26.8348606  51.2429695  39.1634591  20.1015890
  50.4067008  39.5009278  20.4225165  51.1034465  39.0283571  19.1643027
  53.2182776  34.0071379  24.8095074  52.5647188  33.6920396  24.1851689
  53.1763250  33.3847120  25.5354897  54.3293981  44.2890674  16.7248366
  53.4221043  44.0579928  16.9239515  54.8265013  43.4928294  16.9122348
  55.5082214  44.3903269  21.2472356  54.5993433  44.1062302  21.3444826
  55.5377298  44.8102348  20.3875663  46.0770385  42.1108783  25.2287559
  45.8794784  41.5178144  24.5038625  45.5217049  41.8060994  25.9463497
  54.0567108  42.0031890  27.3482152  54.1115718  41.0505726  27.2724628
  53.2458310  42.1591329  27.8323450  55.2058302  45.9312013  18.5860435
  54.7677732  45.2147872  18.1266072  55.9468743  46.1588128  18.0245526
  51.9959468  40.6208950  25.1072531  51.1827334  40.9203120  25.5137723
  52.4918462  40.2264638  25.8247013  51.4873543  38.1927305  30.7233766
  52.1272922  38.0516064  30.0256729  50.6551073  37.9061818  30.3472368
  52.2633847  47.4929735  26.8368758  53.0574445  46.9980056  26.6351333
  51.5525539  46.9647599  26.4736464  48.5716610  41.6372817  22.9128511
  47.6414198  41.5757273  23.1298473  48.6674082  41.1148770  22.1165152
  48.4902159  38.1627630  25.5006752  48.7508977  39.0772963  25.3915913
  49.3119332  37.6952073  25.6503365  49.9627085  39.5765387  32.6705577
  50.6350138  39.3682749  32.0218226  49.1356871  39.3787473  32.2310809
  54.8405123  48.0658757  30.5166595  54.7016209  47.6977542  31.3892533
  54.0519719  48.5806397  30.3450553  50.3654582  42.8507990  33.4308014
  50.2274380  42.1188229  34.0319553  51.2759505  42.7616890  33.1492202
  52.9936883  42.5627950  32.9191694  53.7036501  41.9221142  32.8778312
  52.9506191  42.8140844  33.8417875  51.7065817  39.5493167  34.7387333
  51.1703174  39.0983906  35.3908930  51.1182525  39.6839076  33.9957798
  51.1168076  39.0081819  17.3013797  50.2397542  38.8870620  16.9376044
  51.5925829  38.2167897  17.0492686  42.6370216  43.7958979  27.3955304
  43.3241256  43.4820709  26.8076319  42.4818344  44.7000343  27.1222555
  47.4404938  38.6849175  31.8240328  47.3563127  38.0774845  31.0890738
  46.6187644  39.1758193  31.8249824  54.1963620  39.3120122  26.9182207
  53.8261408  38.7591162  27.6063113  54.6922713  38.7078255  26.3657207
  47.6220537  49.3053972  30.9468328  48.2073974  48.5597660  31.0796232
  47.4245376  49.6157928  31.8304992  42.2138192  41.8759572  29.6672771
  42.2522291  41.3423163  30.4609889  41.7078485  41.3494777  29.0483748
  49.5928954  36.7224112  33.1635313  49.6570281  37.5838943  32.7512711
  49.5296074  36.1098114  32.4307672  49.0681227  38.7947245  36.8108348
  49.6953265  38.4124322  37.4245872  48.2109145  38.5761447  37.1764040
  45.8446769  40.6023674  22.7426703  46.1400210  39.6934352  22.6893756
  44.9434805  40.5811414  22.4207705  49.3741016  38.6779671  28.7254251
  48.6527602  39.2915638  28.5861724  50.1634272  39.2137435  28.6470897
  52.1767330  36.0134097  34.9994903  52.7001732  36.2596394  35.7621212
  51.9579663  36.8454132  34.5798040  47.5734611  38.2837772  22.8666028
  47.2447317  37.4035151  22.6841134  47.9273982  38.2285440  23.7542417
  50.6876434  38.5710742  23.2341505  51.0272507  39.0996663  22.5120114
  51.1348555  38.9091148  24.0100072  53.3819875  36.9547792  32.6844573
  53.0416695  36.1555605  33.0865253  52.6758881  37.2549503  32.1121407
  54.0336347  34.0397105  31.1371896  54.8562416  33.5657583  31.0150787
  54.2774410  34.8187588  31.6370583  52.6744581  37.0685363  21.4334798
  53.3952944  37.4466616  20.9298515  52.0509885  37.7874240  21.5369776
  51.5574926  40.7316225  28.9463875  51.4119506  41.0456528  29.8388157
  51.0800129  41.3501126  28.3934774  53.4171308  37.7218773  28.9944765
  53.4032877  36.8259867  28.6577063  54.1343737  37.7289437  29.6283051
  55.2697439  38.1556113  31.0397892  55.0115217  39.0773184  31.0382223
  54.7382480  37.7586548  31.7298356  46.0320588  43.2721570  31.8851536
  45.4874056  44.0481378  32.0171811  46.9099938  43.6192374  31.7270658
  52.8208204  36.6033154  24.2632335  52.9424116  35.6749800  24.4623222
  52.5310247  36.6171840  23.3510650  55.6899395  34.2888064  27.3999055
  55.7121092  34.3527397  26.4451034  56.1067454  33.4492573  27.5939561
  46.8186610  42.3991466  34.7781693  46.0768346  42.5474101  35.3646324
  46.4979354  42.6599732  33.9148443  47.2643223  50.2856895  26.8092088
  48.0901243  49.9860667  26.4290731  46.9137275  49.5164517  27.2581876
  52.2324756  49.6383363  28.8789761  51.6104766  48.9754068  28.5791989
  52.9029623  49.6644495  28.1963409  45.4651828  48.2043221  27.7681021
  44.6283737  47.7765396  27.5865023  45.4375474  48.3975664  28.7051813
  52.3049284  38.1165151  38.4722267  52.3537439  38.9927274  38.0900037
  52.8471798  37.5742544  37.8993911  51.7938263  48.1887286  22.3548222
  51.9426384  48.8722751  21.7014895  52.6004707  48.1692376  22.8697678
  54.5348572  38.8696523  35.2268626  53.6651882  39.1630089  34.9551215
  54.7708053  39.4536968  35.9475890  49.5490896  44.2152464  23.3609291
  49.3036938  43.3114794  23.5589501  49.7186811  44.2169614  22.4188769
  48.8186544  39.9480821  20.8595452  48.1255789  40.0225176  20.2035488
  48.5738296  39.1841165  21.3816969  53.8623384  39.9446206  17.1030907
  52.9554840  39.6479319  17.1793621  54.1399365  39.6476024  16.2365193
  44.7801325  41.2652569  27.5529953  44.4604109  40.4117877  27.2604327
  44.2334753  41.4801147  28.3087921  48.5581232  43.9815010  31.2699460
  48.7767242  44.9132118  31.2887494  48.9707006  43.6222985  32.0554264
  53.4309098  39.5548216  40.6602209  53.3305825  40.5042573  40.5914300
  53.2130640  39.2266455  39.7878279  52.6322169  36.8033141  17.2442886
  53.4941333  37.1288039  17.5038704  52.8172513  36.0164637  16.7315952
  44.6489585  44.8855481  29.5223075  43.9553056  44.4709434  29.0093029
  45.3962576  44.9276017  28.9256494  53.2940368  42.9845355  39.4767271
  52.8107449  43.7845715  39.6831160  53.3801307  42.9953300  38.5234715
  46.5626327  44.8173735  27.3989090  46.5397016  44.9161422  26.4470973
  46.8726964  45.6638885  27.7206256  49.2213705  46.8749890  31.5135704
  50.1756959  46.8433832  31.4465636  49.0226229  46.4140513  32.3285930
  49.8113087  45.4451006  34.0806502  50.6305976  45.9395084  34.1041339
  50.0849895  44.5282974  34.0524070  47.5763934  52.4169509  28.5305902
  47.4418402  51.6569910  27.9643900  47.1595996  53.1410409  28.0634691
  45.0648002  39.7789139  34.7798699  45.7106865  39.2688093  35.2685924
  44.8565153  40.5157821  35.3542124  53.5851612  34.0429184  20.5322595
  53.5730282  34.9871024  20.6890866  54.4775034  33.8599330  20.2382056
  49.4045493  36.9256757  38.8773713  50.2676954  36.5693561  39.0877038
  48.8310903  36.5870651  39.5649118  30.6840023  -0.0849890  11.2129097
  30.6064052   0.8657935  11.2917577  30.0801666  -0.4304018  11.8704023
  28.3226852   2.6635504  15.3577299  28.5623451   3.2954028  16.0356317
  27.4796049   2.3123544  15.6442658  32.9376953   0.7227250  19.2858735
  33.4895261   0.8858871  20.0507821  33.2783147   1.3131688  18.6138760
  25.8976426  -1.2352204  15.2551209  25.7630894  -1.9951803  14.6889207
  25.4808489  -0.5111304  14.7879998  29.0545552  -0.3382887  15.4669652
  28.9377936   0.6062546  15.3648342  28.2337998  -0.6409325  15.8555451
  30.0800066   0.3145375  18.6825580  30.9827313   0.3468985  18.9992075
  29.8537436  -0.6154174  18.6971916  40.2382884   6.7099805  12.3339837
  39.6747749   6.6189742  11.5656124  40.1235279   5.8899709  12.8142329
  44.8615851   6.0099180  22.3029151  44.8504492   5.6151978  21.4309655
  45.0236491   5.2765253  22.8962923  37.7847316   8.2050996  15.1724057
  38.5768608   7.8641821  14.7570356  38.0243966   8.3145971  16.0926210
  39.7438070   7.4659910   8.0441436  40.5168946   6.9188897   7.9054312
  40.0963469   8.3304159   8.2555897  41.5823112   8.7936292  21.2508335
  41.2912978   9.6981923  21.1355001  42.2180097   8.8352819  21.9652405
  42.5079319   6.1713140  17.8409695  43.1042891   5.9469163  17.1266658
  42.5654291   5.4297886  18.4435143  44.1432177   4.9890829  11.5830950
  43.7790384   4.4621450  12.2943871  44.9999293   4.5989298  11.4097435
  46.5412997   8.4797707  18.2458129  46.2413720   9.3822746  18.1373936
  46.1964057   8.2129890  19.0979282  39.9925479   4.9311504  14.2794833
  39.0675975   4.7987718  14.4872525  40.2409892   5.7105723  14.7764776
  37.3534290   4.5744778  15.1138622  37.4826671   4.8279257  16.0278034
  36.6731741   5.1672486  14.7943277  41.5233777  15.2442028  11.2129097
  41.4457807  16.1949853  11.2917577  40.9195421  14.8987900  11.8704023
  42.2697379   5.2255346  23.4308430  43.0112064   5.7640390  23.1543254
  41.5634365   5.8521635  23.5879982  47.7452719   7.3684487  22.0280592
  48.1536075   6.9266897  21.2835224  47.0229980   6.7937114  22.2814785
  48.0681534   7.9285678  15.7832881  47.4390396   8.0931392  15.0808949
  47.6807196   8.3427287  16.5543845  43.6209495   7.6660086  13.0482966
  44.0847841   7.9447789  12.2587588  43.3566293   6.7643530  12.8656057
  40.5133576   7.2131567  15.9862729  41.0834934   7.6418836  15.3480214
  41.1041688   6.9314152  16.6846915  36.3003715   2.0466791  15.1589665
  35.5102769   2.3024319  14.6829775  36.7914963   2.8615128  15.2641705
  50.3167525   9.3872030  17.9094945  51.1384969   8.9852217  17.6277627
  50.3129928   9.2840264  18.8611061  38.2518461   2.4111370  12.1173141
  37.4549624   2.5230064  12.6356637  38.0244053   2.7498022  11.2514032
  44.0824128   8.9356073  20.0655656  44.1468561   9.3976480  20.9013828
  43.3735052   8.3053438  20.1937966  34.5841418   2.2997281  17.5904655
  34.8349457   3.1844291  17.8562231  35.1200967   2.1201883  16.8179747
  43.7972146  10.6024181   9.9334636  43.6617821  11.4475716  10.3619484
  44.3381959  10.8043458   9.1700570  37.2501543   8.1199619  10.5062561
  37.7626064   8.9142869  10.6568126  37.9024256   7.4225909  10.4396163
  39.0596428  11.2365375  12.5885315  39.2363056  12.1583340  12.4006298
  39.8553262  10.9223794  13.0179694  38.3448785   3.2830007  22.4647478
  38.2302300   2.3815264  22.7654577  37.4893302   3.5293704  22.1132294
  45.4240622  11.2247747  24.0634978  44.9804477  10.4384126  23.7455883
  46.0857836  11.4126898  23.3978869  40.1827744  12.7543549  18.5895657
  40.7335169  12.6260612  17.8172651  39.3439220  13.0538438  18.2390550
  47.5221861  11.5050547  22.0916380  47.5040336  12.3259428  21.5996649
  48.4441781  11.3804622  22.3166521  43.9794915   9.0194677  22.9339888
  44.5123251   8.2582965  22.7039196  43.4508996   8.7268328  23.6764042
  35.2150460   6.4488273  11.2822132  36.0525682   6.8585281  11.0655840
  35.3928728   5.5087715  11.2522326  45.3447627   8.1480669  10.4458700
  44.8168989   7.4133429  10.1331937  44.8435130   8.9255345  10.1998668
  50.3240473   6.3429689  15.5625746  49.6664148   7.0328951  15.6505875
  51.1280873   6.7326121  15.9059733  46.3968306  14.6758386   6.3690359
  45.7230005  14.9790083   6.9775317  46.7834128  15.4787467   6.0195816
  49.9007728   9.6780064  11.7408831  49.4470056   8.8370974  11.7974021
  49.2701695  10.3141462  12.0783611  48.3440668  11.5156560  12.6758649
  48.6363642  12.0761617  11.9571014  48.8539288  11.8085121  13.4311808
  35.2376631   3.7878988  11.9532865  35.0401031   3.1948349  11.2283932
  34.6823295   3.4831198  12.6708804  43.3074293  12.2936911  13.7652102
  43.2650472  12.5197758  12.8360634  44.2236992  12.0600286  13.9137903
  52.5107043   7.9515942  16.3793332  52.9443550   7.8591231  17.2276386
  53.2238624   7.9273442  15.7413348  41.4240094   9.1699940  13.5614065
  42.2180692   8.6750261  13.3596640  40.7131786   8.6417804  13.1981770
  46.2434938  11.5518036  17.9126432  46.2971960  12.1208972  18.6804148
  45.3749719  11.7219921  17.5480469  37.7322857   3.3143022   9.6373817
  36.8020445   3.2527478   9.8543780  37.8280329   2.7918975   8.8410459
  53.3722593   7.9939642  18.9126217  53.5658483   8.8985453  19.1585492
  53.2723211   7.5347062  19.7464802  48.4337701   8.1446385  24.4867098
  48.2823208   7.9156937  23.5697181  48.4242381   9.1016987  24.4998443
  45.2023038   5.7178298  19.4713364  46.1315098   5.8689458  19.2982332
  44.7814068   5.8062319  18.6162011  44.0011370   9.7428962  17.2411902
  43.8622455   9.3747747  18.1137840  43.2125966  10.2576602  17.0695860
  44.5959522  14.8438059   8.5837438  44.7711277  14.3726102   9.3983061
  43.9092310  15.4703825   8.8118699  45.5516585   9.1210565  14.6300740
  45.2166417   9.0811335  15.5258390  45.0520530   8.4555281  14.1571150
  39.5260829   4.5278195  20.1553321  39.3880627   3.7958434  20.7564860
  40.4365752   4.4387095  19.8737509  50.1429908  11.1765508  22.5643580
  50.0842454  10.4924728  21.8974163  50.5449426  11.9184498  22.1124206
  39.1620607  17.9927422  15.3577299  39.4017205  18.6245946  16.0356317
  38.3189803  17.6415462  15.6442658  50.1447315   9.1405092  20.7957559
  49.2574094   8.8031014  20.9183958  50.7145866   8.4088123  21.0326325
  31.7976462   5.4729183  14.1200611  32.4847502   5.1590913  13.5321626
  31.6424591   6.3770548  13.8467862  43.6748469  13.8006544  17.7618803
  43.6018640  14.6061516  18.2738107  43.2325862  13.9998510  16.9366824
  43.4638248  13.0378314  11.2721624  42.6805770  13.5799994  11.3659849
  44.1630994  13.5552294  11.6715865  46.1347152  13.6993378  19.9176961
  46.8475124  14.3340843  19.8452863  45.6437181  13.7957244  19.1016963
  41.1859066  11.4487822  20.7382532  41.8868525  12.0824305  20.8911926
  40.7154181  11.7902553  19.9778171  45.9467526  14.0392122  12.6663253
  46.1289920  13.2213778  13.1291005  46.7700512  14.2559814  12.2288143
  46.2809691  12.9660307   9.9278301  46.8097458  12.4552762   9.3148463
  46.5437911  12.6502838  10.7923834  36.7826784  10.9824177  17.6713635
  37.3680221  10.2367865  17.8041539  36.5851622  11.2928133  18.5550299
  39.6365439  14.0175424  12.6876077  38.9675814  14.5021552  12.2040117
  39.4978309  14.2644644  13.6019456  31.3744439   3.5529777  16.3918078
  31.4128538   3.0193368  17.1855196  30.8684731   3.0264982  15.7729055
  43.7770708  16.0519168  19.2858735  44.3289016  16.2150789  20.0507821
  44.1176901  16.6423605  18.6138760  48.6281582  10.8780425  25.1407390
  49.1721486  11.4910383  24.6462345  48.0468427  11.4360003  25.6574403
  35.0053016   2.2793879   9.4672009  35.3006457   1.3704557   9.4139063
  34.1041052   2.2581618   9.1453012  46.9139095  14.0001143  16.2722418
  46.7890234  13.1990883  15.7633363  47.5718186  14.4947336  15.7836388
  48.9774003  11.8010163  17.9001968  48.0304339  11.6815514  17.8280294
  49.3256776  10.9132661  17.9828229  45.9820437  11.5962879  14.1006320
  45.8345399  10.6679587  14.2813890  46.8073930  11.6182970  13.6163395
  49.5854558  12.4191438  15.1871193  50.5101106  12.2134299  15.0495644
  49.4169862  12.1707839  16.0960534  49.3749875  12.9377106  10.5433284
  49.5486752  12.3723528   9.7907137  49.8678766  13.7378000  10.3612774
  35.1926834   4.9491775  18.6096843  34.6480303   5.7251583  18.7417117
  36.0706184   5.2962579  18.4515964  35.9792856   4.0761671  21.5027000
  35.2374592   4.2244306  22.0891630  35.6585601   4.3369937  20.6393749
  43.9236519  13.6177649  21.3007390  44.2323645  13.3726796  22.1730089
  44.7212001  13.8224288  20.8126260  43.9457131  15.7715559  13.5312766
  43.5062121  15.2791937  14.2245623  44.6965248  15.2288526  13.2904842
  36.4249470  11.9627100  13.5337394  37.2507490  11.6630871  13.1536038
  36.0743522  11.1934722  13.9827183  41.3931003  11.3153568  15.6035068
  40.7711012  10.6524273  15.3037296  42.0635870  11.3414700  14.9208716
  34.6258075   9.8813426  14.4926328  33.7889983   9.4535600  14.3110329
  34.5981720  10.0745869  15.4297119  51.9510376  10.3376479  24.4768711
  51.1605920  10.3200618  23.9373211  51.7143731  10.8764773  25.2317748
  40.9544510   9.8657491   9.0793529  41.1032630  10.5492956   8.4260201
  41.7610954   9.8462581   9.5942984  53.5726448   9.6065887  22.0343461
  53.2811257   9.9695868  22.8706922  52.9598579   8.8932895  21.8556793
  38.7097143   5.8922669  10.0854597  38.4643185   4.9884999  10.2834808
  38.8793058   5.8939819   9.1434075  44.4539916  12.3605622   6.5505276
  43.8813883  12.9795809   6.0975748  45.0272709  12.9104983   7.0845198
  44.7225407   7.7484181  25.3521985  45.6428416   7.9262780  25.5462032
  44.6874990   6.8040226  25.2001685  33.9407572   2.9422774  14.2775260
  33.6210356   2.0888082  13.9849634  33.3941000   3.1571352  15.0333227
  37.7187479   5.6585215  17.9944767  37.9373489   6.5902323  18.0132800
  38.1313253   5.2993190  18.7799570  33.8095832   6.5625686  16.2468382
  33.1159303   6.1479638  15.7338336  34.5568823   6.6046222  15.6501801
  42.4546615   4.6615560  26.2012577  41.9713696   5.4615920  26.4076466
  42.5407554   4.6723505  25.2480021  35.7232574   6.4943939  14.1234397
  35.7003262   6.5931627  13.1716280  36.0333211   7.3409090  14.4451563
  38.3819952   8.5520094  18.2381011  39.3363206   8.5204037  18.1710943
  38.1832476   8.0910718  19.0531237  38.9719334   7.1221211  20.8051809
  39.7912223   7.6165289  20.8286646  39.2456142   6.2053179  20.7769376
  36.7370181  14.0939714  15.2551209  36.6024649  13.3340115  14.6889207
  36.3202243  14.8180614  14.7879998  39.8939307  14.9909031  15.4669652
  39.7771691  15.9354463  15.3648342  39.0731753  14.6882593  15.8555451
  34.2254248   1.4559344  21.5044006  34.8713112   0.9458298  21.9931231
  34.0171400   2.1928026  22.0787431  46.7507641   8.5240192  27.0036146
  47.6198800   8.6980844  26.6422781  46.2714392   9.3434609  26.8811876
  40.9193821  15.6437293  18.6825580  41.8221068  15.6760903  18.9992075
  40.6931191  14.7137744  18.6971916  42.6747423  14.3968279  15.3435659
  41.7243054  14.3970141  15.2300031  42.9779909  13.6501014  14.8271693
  55.2189823  20.1856246  16.3442946  54.8808334  20.0697311  15.4563481
  56.0879591  19.7847411  16.3243952  51.0776638  22.0391722  12.3339837
  50.5141503  21.9481659  11.5656124  50.9629033  21.2191627  12.8142329
  55.7009606  21.3391098  22.3029151  55.6898246  20.9443896  21.4309655
  55.8630245  20.6057170  22.8962923  48.6241070  23.5342914  15.1724057
  49.4162362  23.1933739  14.7570356  48.8637720  23.6437889  16.0926210
  50.5831824  22.7951827   8.0441436  51.3562700  22.2480814   7.9054312
  50.9357223  23.6596077   8.2555897  52.4216867  24.1228209  21.2508335
  52.1306733  25.0273840  21.1355001  53.0573851  24.1644737  21.9652405
  53.3473074  21.5005058  17.8409695  53.9436646  21.2761080  17.1266658
  53.4048045  20.7589803  18.4435143  54.9825932  20.3182746  11.5830950
  54.6184139  19.7913367  12.2943871  55.8393048  19.9281215  11.4097435
  50.8319233  20.2603422  14.2794833  49.9069730  20.1279636  14.4872525
  51.0803647  21.0397641  14.7764776  48.1928044  19.9036695  15.1138622
  48.3220426  20.1571174  16.0278034  47.5125496  20.4964403  14.7943277
  52.3627532  30.5733945  11.2129097  52.2851561  31.5241770  11.2917577
  51.7589175  30.2279818  11.8704023  54.8544761  17.7461811  23.8690463
  54.0778095  18.3055731  23.8593328  55.4935324  18.2318594  24.3905334
  53.1091134  20.5547264  23.4308430  53.8505818  21.0932308  23.1543254
  52.4028119  21.1813553  23.5879982  54.9377543  17.6349011  19.4014149
  55.7838739  18.0588425  19.5448798  54.8776181  16.9782636  20.0952712
  54.4603250  22.9952003  13.0482966  54.9241595  23.2739706  12.2587588
  54.1960048  22.0935448  12.8656057  51.3527331  22.5423485  15.9862729
  51.9228688  22.9710753  15.3480214  51.9435443  22.2606070  16.6846915
  53.3972136  19.1175156   9.8572531  54.0996179  19.5696199  10.3246457
  53.0652764  18.4758975  10.4852424  51.8452497  17.7086912  24.2323740
  51.2151158  18.3903193  24.4659137  51.7388585  17.5969994  23.2876879
  47.1397470  17.3758708  15.1589665  46.3496524  17.6316237  14.6829775
  47.6308717  18.1907046  15.2641705  49.0912215  17.7403288  12.1173141
  48.2943379  17.8521982  12.6356637  48.8637807  18.0789940  11.2514032
  54.9217883  24.2647991  20.0655656  54.9862315  24.7268398  20.9013828
  54.2128807  23.6345356  20.1937966  45.4235173  17.6289199  17.5904655
  45.6743211  18.5136209  17.8562231  45.9594721  17.4493800  16.8179747
  54.6365901  25.9316098   9.9334636  54.5011575  26.7767634  10.3619484
  55.1775713  26.1335376   9.1700570  51.1233240  12.0107678  26.5948991
  50.7300186  11.4573877  27.2696636  51.9399381  12.3218257  26.9855509
  48.0895298  23.4491536  10.5062561  48.6019819  24.2434787  10.6568126
  48.7418011  22.7517827  10.4396163  49.8990183  26.5657293  12.5885315
  50.0756811  27.4875257  12.4006298  50.6947016  26.2515712  13.0179694
  54.0401201  13.4265557  24.1869248  54.7810915  14.0272710  24.1073711
  54.2719124  12.6843195  23.6287291  49.1842539  18.6121924  22.4647478
  49.0696054  17.7107182  22.7654577  48.3287057  18.8585621  22.1132294
  51.0221498  28.0835466  18.5895657  51.5728923  27.9552530  17.8172651
  50.1832974  28.3830355  18.2390550  54.8188669  24.3486594  22.9339888
  55.3517006  23.5874882  22.7039196  54.2902750  24.0560246  23.6764042
  46.0544215  21.7780191  11.2822132  46.8919437  22.1877199  11.0655840
  46.2322482  20.8379633  11.2522326  53.3097790  11.9090045  15.4348945
  54.1750787  11.7132854  15.0754834  53.3775299  11.6800397  16.3618301
  50.9160109  14.1392253  12.8065312  51.4903861  13.9167434  12.0738504
  51.5031092  14.2080947  13.5593913  46.0770386  19.1170906  11.9532865
  45.8794786  18.5240267  11.2283932  45.5217050  18.8123116  12.6708804
  54.0567110  19.0094012  14.0727458  54.1115719  18.0567849  13.9969935
  53.2458312  19.1653451  14.5568757  51.9959469  17.6271072  11.8317837
  51.1827335  17.9265243  12.2383029  52.4918464  17.2326761  12.5492320
  54.1468047  27.6228829  13.7652102  54.1044226  27.8489675  12.8360634
  55.0630746  27.3892204  13.9137903  51.4873544  15.1989428  17.4479072
  52.1272924  15.0578187  16.7502036  50.6551075  14.9123941  17.0717674
  52.2633848  24.4991858  13.5614065  53.0574447  24.0042178  13.3596640
  51.5525540  23.9709721  13.1981770  48.5716612  18.6434940   9.6373817
  47.6414200  18.5819395   9.8543780  48.6674084  18.1210893   8.8410459
  48.4902161  15.1689753  12.2252059  48.7508978  16.0835086  12.1161220
  49.3119333  14.7014195  12.3748672  49.9627086  16.5827510  19.3950884
  50.6350139  16.3744872  18.7463533  49.1356872  16.3849596  18.9556116
  54.8405124  25.0720880  17.2411902  54.7016210  24.7039664  18.1137840
  54.0519720  25.5868520  17.0695860  55.4353276  30.1729977   8.5837438
  55.6105032  29.7018020   9.3983061  54.7486064  30.7995743   8.8118699
  50.3654583  19.8570113  20.1553321  50.2274381  19.1250352  20.7564860
  51.2759507  19.7679013  19.8737509  52.9936884  19.5690072  19.6437000
  53.7036502  18.9283264  19.6023619  52.9506192  19.8202967  20.5663181
  51.7065818  16.5555290  21.4632640  51.1703175  16.1046028  22.1154236
  51.1182526  16.6901199  20.7203104  50.0014361  33.3219339  15.3577299
  50.2410960  33.9537863  16.0356317  49.1583558  32.9707379  15.6442658
  42.6370217  20.8021101  14.1200611  43.3241257  20.4882831  13.5321626
  42.4818346  21.7062466  13.8467862  47.4404939  15.6911298  18.5485634
  47.3563128  15.0836967  17.8136044  46.6187645  16.1820316  18.5495131
  54.5142223  29.1298462  17.7618803  54.4412395  29.9353433  18.2738107
  54.0719616  29.3290428  16.9366824  54.3032003  28.3670232  11.2721624
  53.5199525  28.9091912  11.3659849  55.0024748  28.8844211  11.6715865
  54.1963622  16.3182244  13.6427514  53.8261409  15.7653285  14.3308420
  54.6922714  15.7140378  13.0902514  52.0252820  26.7779739  20.7382532
  52.7262280  27.4116222  20.8911926  51.5547935  27.1194471  19.9778171
  47.6220538  26.3116094  17.6713635  48.2073975  25.5659782  17.8041539
  47.4245377  26.6220051  18.5550299  50.4759194  29.3467342  12.6876077
  49.8069569  29.8313469  12.2040117  50.3372063  29.5936562  13.6019456
  42.2138193  18.8821695  16.3918078  42.2522293  18.3485285  17.1855196
  41.7078486  18.3556900  15.7729055  54.6164462  31.3811085  19.2858735
  55.1682770  31.5442707  20.0507821  54.9570656  31.9715523  18.6138760
  49.5928955  13.7286235  19.8880620  49.6570282  14.5901066  19.4758018
  49.5296076  13.1160237  19.1552979  49.0681228  15.8009368  23.5353654
  49.6953267  15.4186445  24.1491179  48.2109147  15.5823569  23.9009347
  45.8446771  17.6085797   9.4672009  46.1400212  16.6996475   9.4139063
  44.9434806  17.5873536   9.1453012  49.3741018  15.6841793  15.4499558
  48.6527603  16.2977761  15.3107031  50.1634273  16.2199558  15.3716204
  52.1767331  13.0196220  21.7240210  52.7001733  13.2658516  22.4866519
  51.9579664  13.8516255  21.3043347  47.5734612  15.2899894   9.5911334
  47.2447318  14.4097273   9.4086440  47.9273983  15.2347563  10.4787724
  50.6876435  15.5772864   9.9586812  51.0272508  16.1058785   9.2365420
  51.1348556  15.9153270  10.7345379  53.3819876  13.9609915  19.4089880
  53.0416697  13.1617728  19.8110560  52.6758882  14.2611626  18.8366713
  54.0336348  11.0459227  17.8617203  54.8562417  10.5719705  17.7396093
  54.2774412  11.8249711  18.3615889  51.5574927  17.7378348  15.6709182
  51.4119508  18.0518651  16.5633463  51.0800130  18.3563248  15.1180080
  53.4171310  14.7280896  15.7190071  53.4032878  13.8321989  15.3822369
  54.1343738  14.7351560  16.3528357  55.2697440  15.1618236  17.7643199
  55.0115218  16.0835307  17.7627529  54.7382481  14.7648671  18.4543663
  46.0320589  20.2783692  18.6096843  45.4874057  21.0543500  18.7417117
  46.9099939  20.6254497  18.4515964  46.8186611  19.4053589  21.5027000
  46.0768347  19.5536224  22.0891630  46.4979355  19.6661854  20.6393749
  54.7630273  28.9469567  21.3007390  55.0717400  28.7018714  22.1730089
  55.5605755  29.1516205  20.8126260  54.7850886  31.1007476  13.5312766
  54.3455876  30.6083855  14.2245623  55.5359002  30.5580444  13.2904842
  47.2643224  27.2919017  13.5337394  48.0901244  26.9922789  13.1536038
  46.9137276  26.5226640  13.9827183  52.2324758  26.6445486  15.6035068
  51.6104767  25.9816191  15.3037296  52.9029625  26.6706617  14.9208716
  45.4651830  25.2105344  14.4926328  44.6283738  24.7827518  14.3110329
  45.4375475  25.4037787  15.4297119  52.3049285  15.1227274  25.1967574
  52.3537441  15.9989396  24.8145344  52.8471799  14.5804667  24.6239217
  51.7938265  25.1949409   9.0793529  51.9426385  25.8784873   8.4260201
  52.6004708  25.1754499   9.5942984  54.5348574  15.8758646  21.9513933
  53.6651883  16.1692212  21.6796521  54.7708054  16.4599091  22.6721196
  49.5490898  21.2214586  10.0854597  49.3036939  20.3176916  10.2834808
  49.7186812  21.2231737   9.1434075  48.8186545  16.9542944   7.5840759
  48.1255790  17.0287299   6.9280795  48.5738297  16.1903288   8.1062276
  55.2933670  27.6897539   6.5505276  54.7207637  28.3087726   6.0975748
  55.8666464  28.2396901   7.0845198  44.7801326  18.2714692  14.2775260
  44.4604110  17.4180000  13.9849634  44.2334754  18.4863270  15.0333227
  48.5581234  20.9877133  17.9944767  48.7767243  21.9194241  18.0132800
  48.9707007  20.6285107  18.7799570  53.4309099  16.5610339  27.3847516
  53.3305826  17.5104696  27.3159607  53.2130641  16.2328578  26.5123586
  44.6489586  21.8917603  16.2468382  43.9553058  21.4771556  15.7338336
  45.3962577  21.9338140  15.6501801  53.2940369  19.9907477  26.2012577
  52.8107451  20.7907838  26.4076466  53.3801308  20.0015422  25.2480021
  46.5626329  21.8235857  14.1234397  46.5397017  21.9223544  13.1716280
  46.8726965  22.6701008  14.4451563  49.2213707  23.8812012  18.2381011
  50.1756960  23.8495954  18.1710943  49.0226230  23.4202636  19.0531237
  49.8113089  22.4513128  20.8051809  50.6305978  22.9457207  20.8286646
  50.0849896  21.5345096  20.7769376  47.5763935  29.4231632  15.2551209
  47.4418403  28.6632033  14.6889207  47.1595998  30.1472532  14.7879998
  50.7333061  30.3200949  15.4669652  50.6165445  31.2646381  15.3648342
  49.9125507  30.0174510  15.8555451  45.0648003  16.7851262  21.5044006
  45.7106867  16.2750216  21.9931231  44.8565154  17.5219944  22.0787431
  51.7587575  30.9729211  18.6825580  52.6614822  31.0052821  18.9992075
  51.5324945  30.0429662  18.6971916  53.5141177  29.7260197  15.3435659
  52.5636808  29.7262059  15.2300031  53.8173663  28.9792932  14.8271693
  49.4045494  13.9318879  25.6019020  50.2676955  13.5755684  25.8122345
  48.8310905  13.5932774  26.2894424  53.4763971  36.1313019  14.1200611
  54.1635011  35.8174749  13.5321626  53.3212100  37.0354383  13.8467862
  53.0531948  34.2113612  16.3918078  53.0916047  33.6777203  17.1855196
  52.5472240  33.6848818  15.7729055  55.6195081  33.6006610  14.2775260
  55.2997865  32.7471918  13.9849634  55.0728509  33.8155188  15.0333227
   4.2104743  21.0602698  40.8089301   3.4568451  20.4910096  40.6533305
   4.3452284  21.0265362  41.7559935   0.5753356  22.5010686  41.1055415
   1.4100247  22.9400490  41.2692975   0.7112484  22.0249339  40.2863661
   4.6211158  21.2178308  43.5409545   5.3514547  20.9563596  44.1017248
   4.0118104  20.4807030  43.5811613   2.7026455  19.3586170  44.1383996
   1.9759619  19.2242135  43.5300488   2.2873742  19.6662999  44.9440714
   2.6275323  18.8864223  40.2660849   2.0674881  18.9557413  41.0392411
   2.0218826  18.7105208  39.5460345   4.2131341  35.5620737  42.9590805
   4.8509751  35.4427485  42.2554145   4.0952184  36.5101581  43.0178757
   1.0221048  35.5148165  42.8952329   0.6839559  35.3989230  42.0072864
   1.8910816  35.1139330  42.8753335   2.4607422  41.0354609  34.1963685
   1.8095402  41.6208690  33.8097699   3.2551785  41.5660804  34.2558723
   3.7672610  33.2872191  40.0344013   4.5535699  32.8691614  39.6834430
   4.0311314  34.1918283  40.2025661   3.9382687  38.7245041  34.7332669
   3.3028520  38.7979668  35.4453574   3.6080094  39.3138640  34.0551749
   9.1681037  33.2247424  40.9376991   9.9006209  32.6546641  41.1714821
   8.4120393  32.8369025  41.3783497   6.6906457  26.9368998  45.3971600
   6.3589782  27.8064409  45.1732815   6.0952071  26.6205282  46.0765630
   3.1837977  39.1381544  44.7967512   2.8838700  40.0406583  44.6883320
   2.8389036  38.8713728  45.6488665   6.5835121  31.6564085  42.4764950
   5.6751998  31.5879493  42.1823711   6.5322716  32.1336030  43.3046775
   8.4496767  29.8580523  44.2542824   7.8071147  30.1513056  43.6082618
   7.9451696  29.7433443  45.0596020   6.1036931  33.6043696  34.9428683
   7.0154787  33.8371083  34.7676381   5.5946578  34.1880740  34.3803762
   0.7408768  32.9640931  45.9523533   1.5869964  33.3880344  46.0958182
   0.6807406  32.3074555  46.6462096   4.7106513  38.5869515  42.3342264
   4.0815375  38.7515229  41.6318332   4.3232175  39.0011124  43.1053228
   8.5895745  39.5223952  39.6886628   7.9046783  39.9022854  39.1383662
   8.6739594  40.1319279  40.4218576   3.8908214  30.6245299  47.6104706
   3.6469146  31.3787360  47.0738982   4.1668144  31.0030647  48.4451953
   5.8446677  37.1683912  46.2881972   6.0563572  37.8115671  45.6116353
   5.7976425  36.3346228  45.8203902   3.4472905  29.7801732  43.1918544
   2.5857385  30.0782986  43.4835281   3.4735340  29.9972131  42.2599577
   6.9592504  40.0455867  44.4604329   7.7809948  39.6436054  44.1787011
   6.9554907  39.9424101  45.4120445  15.0498498  36.3894615  40.8089301
  14.2962206  35.8202013  40.6533305  15.1846039  36.3557280  41.7559935
   3.7889589  24.7838580  45.0142913   3.4453859  25.6740221  44.9382024
   4.1568552  24.5940237  44.1512498   3.7539872  34.7747191  33.5215348
   3.2386495  35.5451795  33.7603736   3.4817180  34.1012327  34.1448410
   2.8686130  27.1543235  42.9792147   2.3650925  27.1173370  42.1659952
   3.1616736  28.0635977  43.0388803   8.7274146  37.5279545  35.4568522
   7.9503589  37.1890705  35.0123684   9.4065627  37.5332169  34.7823487
   3.5426175  32.6474283  35.3475130   3.2376311  32.9620432  36.1985273
   4.4956617  32.7255703  35.3902463   1.9872607  38.8064506  36.9968084
   1.4593968  38.0717266  36.6841321   1.4860110  39.5839182  36.7508052
   6.9665453  37.0013527  42.1135130   6.3089127  37.6912788  42.2015259
   7.7705852  37.3909959  42.4569116   5.7770912  35.3557899  40.1639072
   6.2902793  35.9887891  40.6660781   6.4272136  34.7559095  39.7982432
   3.0393286  45.3342224  32.9199743   2.3654985  45.6373920  33.5284701
   3.4259108  46.1371304  32.5705200   2.2551743  32.8307355  42.4097412
   1.3374304  33.0522302  42.2519100   2.6711886  32.9053665  41.5509120
   3.0386790  34.2298771  37.5400092   3.7858609  34.7420168  37.2307215
   3.3078380  33.9082823  38.4004486   6.5432708  40.3363901  38.2918214
   6.0895035  39.4954811  38.3483405   5.9126675  40.9725299  38.6292994
   5.4865627  31.2655887  39.5218882   4.7488384  30.7533273  39.8529124
   5.7392401  30.8256268  38.7102159   4.9865647  42.1740397  39.2268032
   5.2788622  42.7345455  38.5080398   5.4964268  42.4668958  39.9821192
   5.5877255  24.0432139  40.1160651   5.8936132  23.1829502  39.8286566
   6.3129860  24.6349759  39.9159645   1.0089528  38.2666055  31.8615125
   0.5708958  37.5501914  31.4020763   1.7499969  38.4942170  31.3000217
   3.3964906  33.4204816  47.2142115   3.7514294  33.6476289  48.0736581
   4.0437037  33.7523193  46.5919370   9.1262643  36.5423252  37.9191444
   8.9880542  36.7324848  36.9912633   8.7698862  37.3042635  38.3759495
   9.1532023  38.6099779  42.9302715   9.5868529  38.5175068  43.7785769
   9.8663603  38.5857279  42.2922731  10.0147572  38.6523480  45.4635601
  10.2083462  39.5569290  45.7094876   9.9148190  38.1930899  46.2974186
   1.6683883  28.5381370  47.9625928   1.0211798  29.2371320  47.8690405
   2.4384898  28.9717514  48.3302176   1.8448017  36.3762135  46.0222748
   2.7740077  36.5273295  45.8491715   1.4239047  36.4646156  45.1671394
   2.1941564  39.7794402  41.1810123   1.8591397  39.7395172  42.0767773
   1.6945510  39.1139118  40.7080533   5.1300756  37.1250437  31.4547183
   4.5129927  36.3997265  31.3580236   4.6617244  37.8859797  31.1114257
   6.7872295  39.7988929  47.3466943   5.8999074  39.4614851  47.4693342
   7.3570846  39.0671960  47.5835708   3.4159878  29.5056781  40.4665213
   3.9128578  28.7526743  40.1466283   2.6446859  29.5421097  39.9008422
  11.2689635  35.2097146  42.1083505  11.2579512  36.0921862  41.7377438
  10.4007015  34.8568697  41.9138042   4.4989659  38.2628468  38.0403636
   3.5645937  38.3829930  37.8708341   4.6766327  37.3600935  37.7763646
   7.8862210  34.1045787  38.5753671   8.3522662  34.9373779  38.5013973
   8.3369711  33.6390769  39.2798929   5.9538441  40.4489608  35.5739823
   6.2298285  40.3346203  36.4833697   5.0842940  40.0507093  35.5351996
   5.8578873  26.4726374  42.6144572   4.9441953  26.7030601  42.7826779
   6.2871974  26.5564818  43.4658604   5.6285331  34.6616266  45.1144466
   4.9756782  34.9092174  44.4596919   6.0065711  33.8480404  44.7806943
   2.5892505  44.6975959  39.2172636   2.7714900  43.8797615  39.6800389
   3.4125491  44.9143652  38.7797526   2.9234671  43.6244144  36.4787685
   3.4522437  43.1136599  35.8657847   3.1862890  43.3086675  37.3433218
   3.5564074  44.6584980  42.8231801   3.4315214  43.8574720  42.3142747
   4.2143166  45.1531174  42.3345771   5.6198983  42.4594000  44.4511351
   4.6729318  42.3399351  44.3789678   5.9681756  41.5716498  44.5337613
   2.6245416  42.2546716  40.6515704   2.4770379  41.3263424  40.8323274
   3.4498910  42.2766807  40.1672779   6.2279538  43.0775275  41.7380576
   7.1526085  42.8718137  41.6005027   6.0594841  42.8291676  42.6469918
   2.6206930  30.1084554  35.6447821   2.8370545  30.9909192  35.3436649
   2.1400998  29.7170768  34.9153463   6.0174854  43.5960943  37.0942668
   6.1911732  43.0307365  36.3416520   6.5103745  44.3961838  36.9122158
   1.4930621  26.6242106  40.6753745   1.5152318  26.6881439  39.7205724
   1.9098680  25.7846615  40.8694251  11.8714245  36.3597366  38.7132967
  12.3145391  35.6104691  38.3152091  10.9940756  36.3507502  38.3306699
   7.0050027  42.9127707  34.1939566   7.7000931  43.5334400  34.4126881
   7.3473177  42.0623058  34.4691944   8.9041450  40.3627413  35.7226897
   9.4292774  40.7014685  34.9976217   8.8163802  39.4274428  35.5390031
   8.7133231  37.8452783  48.3410823   8.7631236  37.6802790  49.2826346
   8.6047154  36.9780042  47.9508704   6.0036993  33.8283711  49.6570130
   6.9046856  33.6890175  49.3654128   6.0784968  33.9938165  50.5968307
  10.2151428  40.2649724  48.5852845   9.9236236  40.6279705  49.4216306
   9.6023559  39.5516732  48.4066177  11.4147110  37.8302604  41.1055415
  12.2494001  38.2692408  41.2692975  11.5506239  37.3541257  40.2863661
   8.4638616  35.3882339  47.0532903   8.9392738  35.5809985  46.2451754
   7.5404181  35.4441525  46.8076286   3.0418832  27.4230182  46.0188737
   3.5600776  28.1591209  45.6935225   2.6873965  27.7294176  46.8535496
   3.2931427  23.8430465  41.5389633   3.5733180  23.1753654  42.1650060
   4.0782034  24.0359560  41.0264297   7.1640285  32.2648099  45.2861208
   8.1157708  32.3646197  45.3073432   6.9943735  31.4726367  45.7959293
   5.1854664  29.3503682  45.4720609   4.5904597  29.6308695  44.7767098
   4.9004361  29.8397583  46.2437350   4.3162155  43.3026609  34.2323242
   5.2492828  43.2372171  34.4356117   4.2285368  44.1382876  33.7737775
   6.9450172  42.6192479  31.1927189   6.8663803  42.2852343  32.0862947
   7.7659838  43.1114247  31.1918662   9.6428363  35.4854219  44.4003508
   9.6104683  34.5470219  44.5863192  10.2528986  35.5638255  43.6669333
   1.4811694  34.3550272  30.4430712   2.4270798  34.2256480  30.5119130
   1.1025939  33.6164933  30.9200140   9.7922851  32.2765262  44.4461791
   9.2761900  31.4923719  44.2591720  10.6762800  31.9483979  44.6108311
   7.4533578  26.0206278  40.4057604   7.2558399  25.7121366  41.2900936
   8.0633284  26.7467916  40.5355534  15.4604913  36.5470225  43.5409545
  16.1908301  36.2855514  44.1017248  14.8511858  35.8098947  43.5811613
  13.5420210  34.6878088  44.1383996  12.8153373  34.5534053  43.5300488
  13.1267497  34.9954917  44.9440714   3.2107225  25.9015184  38.1554135
   3.7638263  26.3210638  38.8144158   3.4477311  24.9750933  38.1977091
   6.5886032  28.0115710  37.6632800   6.0084701  28.6700514  37.2810852
   6.3221965  27.1893054  37.2520217   5.0389598  27.4120767  39.8654120
   5.5389377  27.5237302  39.0568439   5.6825206  27.1081820  40.5054928
   5.3710910  30.1715800  36.7189148   4.4836765  30.4565451  36.5009343
   5.7864899  30.0109563  35.8716425   8.7225446  30.1962321  40.4343487
   9.4985836  30.6858773  40.7068104   7.9973580  30.6220375  40.8915357
  11.1598005  30.9089940  41.4917428  11.7542495  30.6685676  40.7810736
  11.2324588  30.1897071  42.1190964   4.5154123  39.9360475  30.8137168
   5.2189973  40.1410477  31.4294823   3.7916772  40.5037237  31.0786251
   5.3451934  35.6870336  36.9339438   5.2887135  36.1438887  36.0947070
   5.8980276  34.9261020  36.7562281   9.1556740  31.4760068  37.7589557
   8.8993674  31.0756703  38.5897765   8.5309608  32.1903862  37.6339697
  13.4669077  34.2156141  40.2660849  12.9068635  34.2849330  41.0392411
  12.8612581  34.0397126  39.5460345   6.4240821  40.3743004  32.8635628
   7.2586425  39.9424202  32.6813103   6.2625164  40.2025018  33.7912522
   6.0786713  36.8775117  34.2291967   6.0235517  36.7119389  33.2880411
   5.4532768  37.5851150  34.3854157   3.2034958  22.9726003  38.0623222
   2.4367354  22.4184489  38.2079905   3.6145663  23.0447872  38.9237374
  15.0525096  50.8912655  42.9590805  15.6903506  50.7719402  42.2554145
  14.9345939  51.8393499  43.0178757  11.8614802  50.8440083  42.8952329
  11.5233314  50.7281148  42.0072864  12.7304570  50.4431248  42.8753335
   9.5623082  49.6128330  32.2269269   9.8148602  49.0909852  31.4652732
   8.6247641  49.4494476  32.3295953  14.6066364  48.6164109  40.0344013
  15.3929454  48.1983532  39.6834430  14.8705069  49.5210201  40.2025661
  20.0074791  48.5539342  40.9376991  20.7399963  47.9838559  41.1714821
  19.2514147  48.1660942  41.3783497  11.6250911  50.9766583  38.1340334
  11.2609118  50.4497204  38.8453255  12.4818027  50.5865053  37.9606819
  17.5300212  42.2660916  45.3971600  17.1983537  43.1356327  45.1732815
  16.9345825  41.9497200  46.0765630  11.2656398  46.0056483  33.1301682
  11.4330801  46.8736720  33.4972153  11.0753567  46.1683765  32.2062971
  17.4228875  46.9856002  42.4764950  16.5145752  46.9171411  42.1823711
  17.3716471  47.4627947  43.3046775  11.2445619  48.4614141  34.1148349
  11.1245244  48.9071191  34.9533829  10.5498207  48.8099458  33.5561887
  19.2890522  45.1872441  44.2542824  18.6464902  45.4804974  43.6082618
  18.7845450  45.0725361  45.0596020  16.9430685  48.9335614  34.9428683
  17.8548541  49.1663001  34.7676381  16.4340332  49.5172658  34.3803762
  11.5802523  48.2932848  45.9523533  12.4263718  48.7172262  46.0958182
  11.5201161  47.6366473  46.6462096  14.7301968  45.9537217  47.6104706
  14.4862900  46.7079277  47.0738982  15.0061899  46.3322564  48.4451953
  16.6840431  52.4975829  46.2881972  16.8957326  53.1407589  45.6116353
  16.6370179  51.6638146  45.8203902  14.2866660  45.1093650  43.1918544
  13.4251139  45.4074903  43.4835281  14.3129095  45.3264049  42.2599577
  10.0397115  49.7758993  36.4081915  10.7421159  50.2280036  36.8755841
   9.7077744  49.1342812  37.0361808   3.7822449  48.0342545  41.7099048
   2.9921503  48.2900074  41.2339159   4.2733697  48.8490883  41.8151089
   5.7337195  48.3987125  38.6682525   4.9368358  48.5105819  39.1866021
   5.5062787  48.7373777  37.8023415  25.8892252  51.7186533  40.8089301
  25.1355960  51.1493931  40.6533305  26.0239793  51.6849198  41.7559935
  14.6283344  40.1130497  45.0142913  14.2847613  41.0032139  44.9382024
  14.9962306  39.9232155  44.1512498  14.5933626  50.1039108  33.5215348
  14.0780250  50.8743713  33.7603736  14.3210935  49.4304245  34.1448410
  12.1780737  44.9488809  38.5800587  11.3222334  44.5595660  38.4006226
  12.5907689  45.0280770  37.7200372  13.7079884  42.4835152  42.9792147
  13.2044680  42.4465288  42.1659952  14.0010491  43.3927895  43.0388803
   9.9522770  42.5673882  41.9858328  10.8175767  42.3716691  41.6264218
  10.0200279  42.3384234  42.9127685  19.5667900  52.8571463  35.4568522
  18.7897343  52.5182623  35.0123684  20.2459381  52.8624086  34.7823487
  14.3819930  47.9766200  35.3475130  14.0770065  48.2912350  36.1985273
  15.3350372  48.0547620  35.3902463  17.8059207  52.3305444  42.1135130
  17.1482882  53.0204706  42.2015259  18.6099607  52.7201876  42.4569116
   7.5585089  44.7976090  39.3574695   8.1328841  44.5751272  38.6247888
   8.1456071  44.8664785  40.1103296  16.6164666  50.6849817  40.1639072
  17.1296548  51.3179809  40.6660781  17.2665890  50.0851012  39.7982432
   7.8854676  46.8280551  33.3770580   7.0491988  47.1655238  33.6979855
   7.7459446  46.6929531  32.4397717   9.8607757  41.6717339  38.0849765
   9.2072169  41.3566356  37.4606379   9.8188231  41.0493079  38.8109588
  13.0945497  48.1599273  42.4097412  12.1768058  48.3814220  42.2519100
  13.5105641  48.2345583  41.5509120  13.8780545  49.5590688  37.5400092
  14.6252364  50.0712085  37.2307215  14.1472134  49.2374741  38.4004486
  16.3259382  46.5947804  39.5218882  15.5882139  46.0825191  39.8529124
  16.5786156  46.1548186  38.7102159  16.4271009  39.3724056  40.1160651
  16.7329886  38.5121420  39.8286566  17.1523614  39.9641677  39.9159645
  10.6992089  49.6677850  40.6236842  10.7540699  48.7151686  40.5479319
   9.8883291  49.8237289  41.1078141   8.6384449  48.2854909  38.3827221
   7.8252315  48.5849080  38.7892413   9.1343443  47.8910598  39.1001703
  14.2358661  48.7496734  47.2142115  14.5908048  48.9768207  48.0736581
  14.8830792  49.0815111  46.5919370  19.9656398  51.8715170  37.9191444
  19.8274296  52.0616766  36.9912633  19.6092616  52.6334552  38.3759495
   8.1298524  45.8573265  43.9988456   8.7697903  45.7162024  43.3011419
   7.2976054  45.5707778  43.6227058  19.9925777  53.9391697  42.9302715
  20.4262284  53.8466986  43.7785769  20.7057358  53.9149197  42.2922731
   5.1327140  45.8273590  38.7761443   5.3933957  46.7418923  38.6670603
   5.9544312  45.3598032  38.9258056  20.8541327  53.9815397  45.4635601
  21.0477217  54.8861208  45.7094876  20.7541945  53.5222816  46.2974186
  12.5077637  43.8673288  47.9625928  11.8605553  44.5663238  47.8690405
  13.2778653  44.3009432  48.3302176  12.6841772  51.7054053  46.0222748
  13.6133832  51.8565212  45.8491715  12.2632802  51.7938074  45.1671394
   7.7593056  46.6727779  30.5768487   6.8822523  46.5516579  30.2130734
   8.2350809  45.8813857  30.3247376  14.2553632  44.8348698  40.4665213
  14.7522332  44.0818661  40.1466283  13.4840614  44.8713015  39.9008422
  22.1083390  50.5389064  42.1083505  22.0973266  51.4213779  41.7377438
  21.2400769  50.1860615  41.9138042  10.8388601  46.9766081  40.1936898
  10.4686389  46.4237122  40.8817803  11.3347694  46.3724215  39.6411898
  18.7255965  49.4337705  38.5753671  19.1916417  50.2665696  38.5013973
  19.1763465  48.9682686  39.2798929  16.6972627  41.8018292  42.6144572
  15.7835707  42.0322519  42.7826779  17.1265729  41.8856736  43.4658604
  16.4679086  49.9908184  45.1144466  15.8150536  50.2384091  44.4596919
  16.8459466  49.1772322  44.7806943   6.0165997  46.3425630  42.0008941
   5.2952583  46.9561598  41.8616415   6.8059253  46.8783395  41.9225587
   4.2159592  45.9483731  36.1420718   3.8872298  45.0681110  35.9595824
   4.5698962  45.8931400  37.0297107   7.3301415  46.2356701  36.5096196
   7.6697487  46.7642622  35.7874804   7.7773535  46.5737107  37.2854762
  10.0244856  44.6193752  45.9599264   9.6841676  43.8201565  46.3619944
   9.3183862  44.9195463  45.3876097  10.6761328  41.7043064  44.4126587
  11.4987397  41.2303543  44.2905477  10.9199391  42.4833548  44.9125273
   9.3169562  44.7331323  34.7089488  10.0377925  45.1112576  34.2053205
   8.6934866  45.4520200  34.8124466  13.4600685  45.4376472  35.6447821
  13.6764299  46.3201110  35.3436649  12.9794752  45.0462685  34.9153463
   8.1999906  48.3962185  42.2218565   8.0544487  48.7102488  43.1142847
   7.7225110  49.0147085  41.6689464  10.0596289  45.3864733  42.2699455
  10.0457858  44.4905826  41.9331753  10.7768717  45.3935397  42.9037741
  11.9122420  45.8202073  44.3152582  11.6540198  46.7419144  44.3136913
  11.3807460  45.4232508  45.0053046   9.4633185  44.2679113  37.5387025
   9.5849096  43.3395759  37.7377913   9.1735228  44.2817799  36.6265340
  12.3324376  41.9534024  40.6753745  12.3546072  42.0173357  39.7205724
  12.7492435  41.1138532  40.8694251  22.7108000  51.6889283  38.7132967
  23.1539146  50.9396608  38.3152091  21.8334510  51.6799420  38.3306699
  19.5526985  53.1744700  48.3410823  19.6024990  53.0094708  49.2826346
  19.4440909  52.3071959  47.9508704  16.8430748  49.1575628  49.6570130
  17.7440611  49.0182093  49.3654128  16.9178722  49.3230083  50.5968307
  22.2540865  53.1594522  41.1055415  23.0887756  53.5984326  41.2692975
  22.3899993  52.6833175  40.2863661  19.3032370  50.7174256  47.0532903
  19.7786492  50.9101903  46.2451754  18.3797936  50.7733442  46.8076286
  13.8812587  42.7522100  46.0188737  14.3994531  43.4883127  45.6935225
  13.5267720  43.0586093  46.8535496   5.4611525  47.6126781  34.1350143
   4.7680770  47.6871136  33.4790179   5.2163277  46.8487125  34.6571659
  14.1325181  39.1722383  41.5389633  14.4126935  38.5045572  42.1650060
  14.9175788  39.3651478  41.0264297  18.0034039  47.5940017  45.2861208
  18.9551462  47.6938114  45.3073432  17.8337490  46.8018285  45.7959293
  16.0248419  44.6795600  45.4720609  15.4298351  44.9600612  44.7767098
  15.7398116  45.1689501  46.2437350  20.4822117  50.8146136  44.4003508
  20.4498437  49.8762137  44.5863192  21.0922741  50.8930173  43.6669333
  12.3205448  49.6842189  30.4430712  13.2664553  49.5548397  30.5119130
  11.9419693  48.9456851  30.9200140  20.6316606  47.6057180  44.4461791
  20.1155654  46.8215636  44.2591720  21.5156554  47.2775896  44.6108311
  18.2927333  41.3498195  40.4057604  18.0952154  41.0413283  41.2900936
  18.9027038  42.0759834  40.5355534  26.2998667  51.8762143  43.5409545
  27.0302056  51.6147431  44.1017248  25.6905613  51.1390865  43.5811613
  24.3813964  50.0170006  44.1383996  23.6547128  49.8825971  43.5300488
  23.9661251  50.3246834  44.9440714  10.5048365  47.6092166  30.3785597
   9.5979821  47.3125278  30.4548311  10.7824346  47.3121984  29.5119884
  12.1210431  42.1529055  36.5329839  11.3111159  41.8076140  36.9085085
  12.8094848  41.8436599  37.1217450  14.0500979  41.2307102  38.1554135
  14.6032018  41.6502556  38.8144158  14.2871066  40.3042850  38.1977091
   9.2747150  44.4679101  30.5197577  10.1366314  44.7933999  30.7793394
   9.4597494  43.6810597  30.0070642  17.4279786  43.3407627  37.6632800
  16.8478455  43.9992431  37.2810852  17.1615719  42.5184972  37.2520217
  15.8783353  42.7412685  39.8654120  16.3783131  42.8529219  39.0568439
  16.5218961  42.4373738  40.5054928  16.2104664  45.5007718  36.7189148
  15.3230519  45.7857368  36.5009343  16.6258653  45.3401481  35.8716425
  19.5619201  45.5254239  40.4343487  20.3379591  46.0150691  40.7068104
  18.8367335  45.9512293  40.8915357  21.9991759  46.2381858  41.4917428
  22.5936250  45.9977594  40.7810736  22.0718343  45.5188988  42.1190964
  16.1845688  51.0162254  36.9339438  16.1280890  51.4730805  36.0947070
  16.7374031  50.2552938  36.7562281  19.9950494  46.8051985  37.7589557
  19.7387428  46.4048621  38.5897765  19.3703362  47.5195779  37.6339697
  24.3062832  49.5448059  40.2660849  23.7462390  49.6141248  41.0392411
  23.7006335  49.3689043  39.5460345  16.9180467  52.2067035  34.2291967
  16.8629271  52.0411306  33.2880411  16.2926523  52.9143068  34.3854157
  10.2276593  41.7075144  33.8077286  10.2155263  42.6516984  33.9645556
  11.1200015  41.5245289  33.5136747  14.0428712  38.3017920  38.0623222
  13.2761108  37.7476407  38.2079905  14.4539417  38.3739789  38.9237374
  25.4677098  55.4422415  45.0142913  25.1241368  56.3324057  44.9382024
  25.8356061  55.2524073  44.1512498  27.2664764  54.7015974  40.1160651
  27.5723641  53.8413338  39.8286566  27.9917369  55.2933594  39.9159645
  24.9718936  54.5014300  41.5389633  25.2520689  53.8337489  42.1650060
  25.7569543  54.6943396  41.0264297  29.1321087  56.6790113  40.4057604
  28.9345908  56.3705201  41.2900936  29.7420793  57.4051752  40.5355534
  24.8822467  53.6309838  38.0623222  24.1154863  53.0768325  38.2079905
  25.2933172  53.7031707  38.9237374   4.2131343  12.5682860  29.6836111
   4.8509753  12.4489607  28.9799451   4.0952186  13.5163704  29.7424063
   1.0221049  12.5210288  29.6197636   0.6839560  12.4051353  28.7318171
   1.8910817  12.1201453  29.5998642   1.5040832  13.6745140  35.5783841
   1.4929473  13.2797938  34.7064345   1.6661471  12.9411212  36.1717613
   2.4607423  18.0416732  20.9208992   1.8095403  18.6270812  20.5343006
   3.2551786  18.5722927  20.9804029   3.7672611  10.2934314  26.7589319
   4.5535700   9.8753737  26.4079736   4.0311315  11.1980406  26.9270968
   3.9382688  15.7307164  21.4577976   3.3028521  15.8041791  22.1698881
   3.6080095  16.3200763  20.7797055   9.1681038  10.2309547  27.6622298
   9.9006210   9.6608764  27.8960127   8.4120394   9.8431147  28.1028803
   3.1837978  16.1443667  31.5212819   2.8838701  17.0468706  31.4128626
   2.8389038  15.8775850  32.3733972   6.5835122   8.6626207  29.2010256
   5.6751999   8.5941616  28.9069017   6.5322718   9.1398152  30.0292082
   8.4496768   6.8642646  30.9788130   7.8071149   7.1575179  30.3327925
   7.9451697   6.7495566  31.7841327   6.1036932  10.6105819  21.6673990
   7.0154788  10.8433206  21.4921687   5.5946579  11.1942863  21.1049068
   4.3877700  15.0330447  35.3035282   4.7961056  14.5912857  34.5589915
   3.6654961  14.4583074  35.5569475   0.7408770   9.9703053  32.6768839
   1.5869965  10.3942467  32.8203488   0.6807407   9.3136678  33.3707402
   4.7106514  15.5931637  29.0587571   4.0815377  15.7577351  28.3563639
   4.3232176  16.0073247  29.8298535   8.5895746  16.5286075  26.4131935
   7.9046784  16.9084976  25.8628968   8.6739596  17.1381402  27.1463883
   3.8908215   7.6307422  34.3350013   3.6469147   8.3849482  33.7984288
   4.1668146   8.0092769  35.1697260   5.8446678  14.1746034  33.0127278
   6.0563573  14.8177794  32.3361659   5.7976426  13.3408351  32.5449208
   3.4472907   6.7863855  29.9163850   2.5857386   7.0845108  30.2080588
   3.4735341   7.0034254  28.9844883   6.9592506  17.0517990  31.1849636
   7.7809949  16.6498177  30.9032317   6.9554909  16.9486224  32.1365751
  15.0498499  13.3956738  27.5334607  14.2962207  12.8264136  27.3778612
  15.1846040  13.3619403  28.4805242   2.0665603  18.8893707  37.3389669
   1.6229457  18.1030085  37.0210573   2.7282817  19.0772857  36.6733559
   4.1646841  19.1696507  35.3671070   4.1465317  19.9905388  34.8751339
   5.0866761  19.0450582  35.5921211   3.7539873  11.7809313  20.2460655
   3.2386497  12.5513918  20.4849043   3.4817182  11.1074449  20.8693717
   8.7274147  14.5341668  22.1813829   7.9503590  14.1952827  21.7368991
   9.4065628  14.5394291  21.5068794   3.5426176   9.6536405  22.0720436
   3.2376312   9.9682555  22.9230579   4.4956618   9.7317825  22.1147769
   1.9872608  15.8126629  23.7213390   1.4593970  15.0779388  23.4086628
   1.4860111  16.5901305  23.4753359   6.9665454  14.0075649  28.8380437
   6.3089129  14.6974911  28.9260565   7.7705853  14.3972081  29.1814423
   5.7770913  12.3620022  26.8884378   6.2902795  12.9950014  27.3906088
   6.4272137  11.7621217  26.5227738   3.0393287  22.3404346  19.6445049
   2.3654986  22.6436043  20.2530007   3.4259109  23.1433427  19.2950507
   2.2551744   9.8369477  29.1342719   1.3374305  10.0584424  28.9764407
   2.6711887   9.9115788  28.2754426   3.0386792  11.2360893  24.2645399
   3.7858611  11.7482290  23.9552521   3.3078381  10.9144946  25.1249793
   6.5432709  17.3426023  25.0163521   6.0895036  16.5016933  25.0728711
   5.9126676  17.9787422  25.3538301   5.4865629   8.2718009  26.2464188
   4.7488386   7.7595396  26.5774431   5.7392402   7.8318391  25.4347465
   4.9865648  19.1802520  25.9513339   5.2788623  19.7407577  25.2325705
   5.4964269  19.4731081  26.7066498   1.0089530  15.2728178  18.5860432
   0.5708960  14.5564036  18.1266069   1.7499970  15.5004292  18.0245523
   3.3964907  10.4266939  33.9387422   3.7514295  10.6538412  34.7981887
   4.0437039  10.7585315  33.3164677   9.1262644  13.5485375  24.6436751
   8.9880543  13.7386971  23.7157940   8.7698863  14.3104757  25.1004802
   9.1532024  15.6161902  29.6548022   9.5868531  15.5237191  30.5031076
   9.8663605  15.5919402  29.0168038   2.8859919  19.2163996  31.1881123
   2.9396941  19.7854932  31.9558839   2.0174700  19.3865881  30.8235160
  10.0147574  15.6585602  32.1880907  10.2083464  16.5631413  32.4340182
   9.9148192  15.1993021  33.0219492   5.0762682  15.8092345  37.7621788
   4.9248189  15.5802897  36.8451872   5.0667362  16.7662946  37.7753133
   1.8448019  13.3824258  32.7468054   2.7740079  13.5335417  32.5737022
   1.4239049  13.4708278  31.8916701   2.1941566  16.7856525  27.9055430
   1.8591398  16.7457295  28.8013080   1.6945511  16.1201241  27.4325840
   5.1300757  14.1312559  18.1792490   4.5129928  13.4059387  18.0825542
   4.6617246  14.8921919  17.8359564   6.7854889  18.8411468  35.8398270
   6.7267435  18.1570688  35.1728853   7.1874407  19.5830458  35.3878896
   6.7872296  16.8051051  34.0712250   5.8999075  16.4676973  34.1938648
   7.3570847  16.0734083  34.3081015  11.2689637  12.2159269  28.8328811
  11.2579513  13.0983984  28.4622744  10.4007016  11.8630820  28.6383348
   2.7772133  21.3639338  33.1931651   3.4900105  21.9986803  33.1207553
   2.2862162  21.4603204  32.3771653   4.4989660  15.2690591  24.7648943
   3.5645939  15.3892053  24.5953647   4.6766328  14.3663057  24.5008953
   7.8862211  11.1107910  25.2998977   8.3522663  11.9435901  25.2259280
   8.3369712  10.6452891  26.0044236   5.9538442  17.4551731  22.2985129
   6.2298286  17.3408326  23.2079003   5.0842941  17.0569216  22.2597302
   5.6285333  11.6678389  31.8389773   4.9756783  11.9154296  31.1842225
   6.0065712  10.8542527  31.5052250   2.5892506  21.7038082  25.9417943
   2.7714901  20.8859738  26.4045695   3.4125492  21.9205774  25.5042833
   2.9234672  20.6306267  23.2032991   3.4522438  20.1198722  22.5903154
   3.1862891  20.3148797  24.0678524   1.6772906  12.4098200  38.3255810
   1.0013543  12.3092329  38.9958185   2.5000539  12.2537414  38.7891807
   5.2706563  18.5426385  38.4162080   5.8146467  19.1556343  37.9217035
   4.6893408  19.1005963  38.9329093   3.5564076  21.6647103  29.5477108
   3.4315215  20.8636843  29.0388053   4.2143167  22.1593296  29.0591078
   5.6198984  19.4656123  31.1756658   4.6729320  19.3461474  31.1034985
   5.9681757  18.5778621  31.2582919   2.6245417  19.2608839  27.3761010
   2.4770380  18.3325546  27.5568580   3.4498911  19.2828930  26.8918085
   6.2279539  20.0837398  28.4625883   7.1526087  19.8780259  28.3250334
   6.0594843  19.8353799  29.3715224   6.0174855  20.6023065  23.8187974
   6.1911733  20.0369488  23.0661827   6.5103747  21.4023960  23.6367464
  11.8714247  13.3659488  25.4378274  12.3145393  12.6166813  25.0397397
  10.9940757  13.3569625  25.0552006   7.0050028  19.9189830  20.9184873
   7.7000933  20.5396522  21.1372187   7.3473178  19.0685181  21.1937251
   8.9041451  17.3689535  22.4472203   9.4292775  17.7076808  21.7221523
   8.8163804  16.4336551  22.2635338   0.5661500  21.2823609  34.5762080
   0.8748626  21.0372756  35.4484780   1.3636982  21.4870247  34.0880950
   8.5935357  18.0022439  37.7523401   7.8030901  17.9846578  37.2127901
   8.3568712  18.5410733  38.5072438   8.7133232  14.8514905  35.0656130
   8.7631237  14.6864913  36.0071653   8.6047156  13.9842164  34.6754011
   6.0036995  10.8345833  36.3815437   6.9046857  10.6952298  36.0899434
   6.0784969  11.0000288  37.3213614  10.2151429  17.2711847  35.3098151
   9.9236237  17.6341827  36.1461612   9.6023560  16.5578855  35.1311484
  11.4147111  14.8364727  27.8300722  12.2494003  15.2754531  27.9938282
  11.5506240  14.3603380  27.0108967   8.4638617  12.3944461  33.7778209
   8.9392739  12.5872108  32.9697061   7.5404183  12.4503647  33.5321593
   7.1640286   9.2710221  32.0106515   8.1157709   9.3708319  32.0318739
   6.9943737   8.4788490  32.5204599   5.1854666   6.3565805  32.1965916
   4.5904598   6.6370817  31.5012405   4.9004362   6.8459706  32.9682657
   4.3162156  20.3088731  20.9568549   5.2492829  20.2434293  21.1601424
   4.2285369  21.1444998  20.4983081   6.9450173  19.6254602  17.9172496
   6.8663804  19.2914465  18.8108254   7.7659840  20.1176370  17.9163968
   9.6428364  12.4916341  31.1248815   9.6104684  11.5532342  31.3108499
  10.2528988  12.5700378  30.3914640   1.4811695  11.3612394  17.1676019
   2.4270800  11.2318602  17.2364437   1.1025940  10.6227056  17.6445447
   9.7922853   9.2827385  31.1707098   9.2761901   8.4985841  30.9837027
  10.6762801   8.9546101  31.3353617  15.4604914  13.5532348  30.2654851
  16.1908302  13.2917636  30.8262555  14.8511859  12.8161070  30.3056919
  13.5420211  11.6940211  30.8629303  12.8153375  11.5596175  30.2545794
  13.1267498  12.0017039  31.6686021   1.3650387  15.4130140  38.6276676
   2.2853397  15.5908739  38.8216722   1.3299970  14.4686186  38.4756375
   5.3710911   7.1777923  23.4434454   4.4836766   7.4627573  23.2254649
   5.7864900   7.0171686  22.5961731   8.7225447   7.2024444  27.1588794
   9.4985837   7.6920896  27.4313410   7.9973581   7.6282498  27.6160663
  11.1598006   7.9152063  28.2162734  11.7542497   7.6747799  27.5056043
  11.2324590   7.1959193  28.8436271   4.5154125  16.9422597  17.5382474
   5.2189975  17.1472600  18.1540130   3.7916773  17.5099359  17.8031558
   5.3451935  12.6932458  23.6584745   5.2887136  13.1501010  22.8192377
   5.8980277  11.9323143  23.4807587   9.1556741   8.4822190  24.4834864
   8.8993675   8.0818826  25.3143072   8.5309609   9.1965984  24.3585003
  13.4669079  11.2218264  26.9906155  12.9068637  11.2911453  27.7637718
  12.8612582  11.0459248  26.2705652   6.4240822  17.3805126  19.5880934
   7.2586426  16.9486325  19.4058409   6.2625165  17.2087140  20.5157829
   6.0786714  13.8837240  20.9537274   6.0235518  13.7181511  20.0125718
   5.4532769  14.5913273  21.1099463   3.3932621  16.1886152  40.2790837
   4.2623781  16.3626804  39.9177471   2.9139373  17.0080568  40.1566566
  15.0525097  27.8974778  29.6836111  15.6903507  27.7781525  28.9799451
  14.9345940  28.8455621  29.7424063  11.8614803  27.8502206  29.6197636
  11.5233315  27.7343270  28.7318171  12.7304572  27.4493371  29.5998642
   7.7201619  29.7037682  25.6094527   7.1566484  29.6127619  24.8410815
   7.6054014  28.8837587  26.0897019  12.3434586  29.0037057  35.5783841
  12.3323227  28.6089856  34.7064345  12.5055226  28.2703130  36.1717613
   5.2666051  31.1988874  28.4478747   6.0587343  30.8579698  28.0325047
   5.5062701  31.3083849  29.3680901  13.3001178  33.3708650  20.9208992
  12.6489158  33.9562730  20.5343006  14.0945541  33.9014845  20.9804029
   7.2256805  30.4597787  21.3196126   7.9987681  29.9126774  21.1809002
   7.5782204  31.3242036  21.5310588   9.0641848  31.7874169  34.5263025
   8.7731714  32.6919800  34.4109692   9.6998832  31.8290697  35.2407095
   9.9898054  29.1651018  31.1164385  10.5861627  28.9407040  30.4021348
  10.0473026  28.4235763  31.7189833   9.5623083  26.6190453  18.9514576
   9.8148603  26.0971974  18.1898039   8.6247642  26.4556598  19.0541260
  14.6066366  25.6226231  26.7589319  15.3929455  25.2045655  26.4079736
  14.8705070  26.5272324  26.9270968  14.7776443  31.0599082  21.4577976
  14.1422276  31.1333708  22.1698881  14.4473849  31.6492681  20.7797055
  20.0074793  25.5601465  27.6622298  20.7399965  24.9900681  27.8960127
  19.2514148  25.1723065  28.1028803   9.2819372  28.5218559  21.1538951
   9.1655630  27.8463462  21.8220035   9.3921631  28.0350933  20.3371104
  11.6250912  27.9828706  24.8585640  11.2609120  27.4559327  25.5698562
  12.4818028  27.5927175  24.6852126  17.5300213  19.2723039  32.1216906
  17.1983538  20.1418450  31.8978121  16.9345826  18.9559323  32.8010937
  11.2656399  23.0118606  19.8546989  11.4330802  23.8798842  20.2217460
  11.0753569  23.1745887  18.9308278  14.0231733  31.4735585  31.5212819
  13.7232456  32.3760623  31.4128626  13.6782792  31.2067768  32.3733972
   7.4744214  27.9249382  27.5549524   6.5494711  27.7925596  27.7627215
   7.7228627  28.7043601  28.0519466  17.4228876  23.9918125  29.2010256
  16.5145754  23.9233533  28.9069017  17.3716472  24.4690070  30.0292082
  11.2445620  25.4676263  20.8393656  11.1245246  25.9133314  21.6779136
  10.5498209  25.8161581  20.2807194   4.8353025  27.5682655  28.3893313
   4.9645406  27.8217134  29.3032724   4.1550476  28.1610363  28.0697968
   9.0052512  38.2379905  24.4883787   8.9276542  39.1887730  24.5672267
   8.4014156  37.8925778  25.1458713  11.4969742  25.4107770  37.1445154
  10.7203076  25.9701691  37.1348018  12.1360305  25.8964553  37.6660024
  19.2890523  22.1934563  30.9788130  18.6464903  22.4867096  30.3327925
  18.7845451  22.0787484  31.7841327  16.9430686  25.9397736  21.6673990
  17.8548543  26.1725123  21.4921687  16.4340334  26.5234781  21.1049068
   9.7516114  28.2193224  36.7063121  10.4930799  28.7578268  36.4297944
   9.0453100  28.8459513  36.8634672  15.2271454  30.3622364  35.3035282
  15.6354810  29.9204775  34.5589915  14.5048716  29.7874992  35.5569475
  11.5802524  25.2994971  32.6768839  12.4263719  25.7234385  32.8203488
  11.5201162  24.6428595  33.3707402  15.5500269  30.9223555  29.0587571
  14.9209131  31.0869269  28.3563639  15.1625931  31.3365164  29.8298535
  14.7301970  22.9599339  34.3350013  14.4862901  23.7141400  33.7984288
  15.0061900  23.3384687  35.1697260  16.6840432  29.5037952  33.0127278
  16.8957328  30.1469712  32.3361659  16.6370181  28.6700268  32.5449208
  14.2866661  22.1155772  29.9163850  13.4251140  22.4137026  30.2080588
  14.3129096  22.3326171  28.9844883  11.1028231  30.6597963  26.3237656
  11.5666576  30.9385666  25.5342279  10.8385029  29.7581408  26.1410747
   7.9952312  30.2069445  29.2617419   8.5653669  30.6356713  28.6234904
   8.5860424  29.9252029  29.9601605  10.0397117  26.7821115  23.1327221
  10.7421160  27.2342159  23.6001148   9.7077745  26.1404934  23.7607114
   8.4877478  25.3732872  37.5078431   7.8576139  26.0549153  37.7413828
   8.3813566  25.2615954  36.5631569   3.7822451  25.0404668  28.4344355
   2.9921505  25.2962197  27.9584465   4.2733698  25.8553006  28.5396395
  17.7986260  32.3809907  31.1849636  18.6203704  31.9790094  30.9032317
  17.7948663  32.2778141  32.1365751   5.7337196  25.4049247  25.3927832
   4.9368359  25.5167942  25.9111327   5.5062788  25.7435899  24.5268722
  11.5642864  31.9293951  33.3410346  11.6287296  32.3914358  34.1768518
  10.8553788  31.2991315  33.4692656   2.0660154  25.2935158  30.8659346
   2.3168192  26.1782168  31.1316922   2.6019702  25.1139760  30.0934437
  11.2790881  33.5962058  23.2089327  11.1436556  34.4413594  23.6374174
  11.8200694  33.7981336  22.4455260   7.7658221  19.6753638  39.8703682
   7.3725167  19.1219836  40.5451326   8.5824361  19.9864216  40.2610199
   4.7320279  31.1137496  23.7817252   5.2444799  31.9080746  23.9322816
   5.3842992  30.4163786  23.7150853   6.5415163  34.2303252  25.8640005
   6.7181792  35.1521217  25.6760989   7.3371997  33.9161672  26.2934385
  10.6826182  21.0911517  37.4623938  11.4235895  21.6918670  37.3828401
  10.9144105  20.3489155  36.9041981   5.8267520  26.2767884  35.7402168
   5.7121035  25.3753141  36.0409267   4.9712038  26.5231581  35.3886985
  12.9059358  34.2185625  37.3389669  12.4623212  33.4322003  37.0210573
  13.5676571  34.4064775  36.6733559   7.6646479  35.7481426  31.8650347
   8.2153904  35.6198489  31.0927341   6.8257955  36.0476315  31.5145240
  15.0040596  34.4988424  35.3671070  14.9859071  35.3197305  34.8751339
  15.9260516  34.3742500  35.5921211  11.4613650  32.0132554  36.2094578
  11.9941987  31.2520842  35.9793886  10.9327731  31.7206206  36.9518733
  14.6283345  17.1192620  31.7388220  14.2847614  18.0094262  31.6627331
  14.9962308  16.9294278  30.8757805   2.6969196  29.4426150  24.5576822
   3.5344418  29.8523159  24.3410530   2.8747463  28.5025592  24.5277016
  14.5933628  27.1101231  20.2460655  14.0780251  27.8805836  20.4849043
  14.3210936  26.4366367  20.8693717  12.1780739  21.9550932  25.3045893
  11.3222335  21.5657782  25.1251532  12.5907690  22.0342893  24.4445679
  13.7079885  19.4897275  29.7037453  13.2044681  19.4527410  28.8905259
  14.0010492  20.3990018  29.7634110   9.9522771  19.5736005  28.7103635
  10.8175768  19.3778813  28.3509524  10.0200280  19.3446357  29.6372992
  14.3819931  24.9828323  22.0720436  14.0770066  25.2974472  22.9230579
  15.3350373  25.0609743  22.1147769  12.8266363  31.1418546  23.7213390
  12.2987724  30.4071306  23.4086628  12.3253865  31.9193223  23.4753359
  17.8059209  29.3367567  28.8380437  17.1482883  30.0266828  28.9260565
  18.6099608  29.7263999  29.1814423   7.5585090  21.8038213  26.0820002
   8.1328842  21.5813394  25.3493195   8.1456073  21.8726907  26.8348603
  16.6164667  27.6911940  26.8884378  17.1296549  28.3241931  27.3906088
  17.2665891  27.0913135  26.5227738   7.8854677  23.8342674  20.1015887
   7.0491990  24.1717360  20.4225162   7.7459447  23.6991653  19.1643024
   9.8607758  18.6779462  24.8095071   9.2072170  18.3628479  24.1851686
   9.8188232  18.0555202  25.5354894  10.9718963  28.9598757  16.7248363
  10.0646025  28.7288010  16.9239512  11.4689995  28.1636376  16.9122345
  13.8787042  37.6696264  19.6445049  13.2048740  37.9727961  20.2530007
  14.2652864  38.4725344  19.2950507  13.0945498  25.1661395  29.1342719
  12.1768060  25.3876342  28.9764407  13.5105642  25.2407706  28.2754426
  13.8780546  26.5652811  24.2645399  14.6252365  27.0774208  23.9552521
  14.1472136  26.2436864  25.1249793  12.1507196  29.0611352  21.2472353
  11.2418416  28.7770384  21.3444823  12.1802280  29.4810430  20.3875660
  17.3826464  32.6717941  25.0163521  16.9288791  31.8308851  25.0728711
  16.7520430  33.3079339  25.3538301  16.3259383  23.6009927  26.2464188
  15.5882140  23.0887313  26.5774431  16.5786157  23.1610309  25.4347465
  15.8259403  34.5094438  25.9513339  16.1182377  35.0699495  25.2325705
  16.3358023  34.8022999  26.7066498  16.4271011  16.3786179  26.8405958
  16.7329887  15.5183542  26.5531873  17.1523615  16.9703799  26.6404952
   2.7195367  26.7816866  25.2287556   2.5219766  26.1886226  24.5038622
   2.1642031  26.4769076  25.9463494  10.6992090  26.6739972  27.3482149
  10.7540700  25.7213809  27.2724625   9.8883292  26.8299411  27.8323447
  11.8483284  30.6020095  18.5860432  11.4102714  29.8855954  18.1266069
  12.5893725  30.8296210  18.0245523   8.6384450  25.2917032  25.1072528
   7.8252316  25.5911202  25.5137720   9.1343444  24.8972721  25.8247010
  10.7893028  35.2874789  27.0406792  10.7469207  35.5135635  26.1115324
  11.7055727  35.0538163  27.1892593  14.2358662  25.7558856  33.9387422
  14.5908050  25.9830329  34.7981887  14.8830793  26.0877233  33.3164677
   8.1298525  22.8635387  30.7233763   8.7697904  22.7224146  30.0256726
   7.2976056  22.5769901  30.3472365  19.9925778  30.9453819  29.6548022
  20.4262285  30.8529108  30.5031076  20.7057359  30.9211320  29.0168038
   8.9058829  32.1637818  26.8368755   9.6999427  31.6688138  26.6351330
   8.1950521  31.6355681  26.4736461  13.7253673  34.5455913  31.1881123
  13.7790696  35.1146850  31.9558839  12.8568455  34.7157798  30.8235160
   5.2141592  26.3080900  22.9128508   4.2839180  26.2465355  23.1298470
   5.3099064  25.7856852  22.1165149   5.1327141  22.8335712  25.5006749
   5.3933959  23.7481046  25.3915910   5.9544314  22.3660155  25.6503362
   6.6052067  24.2473470  32.6705574   7.2775120  24.0390832  32.0218223
   5.7781853  24.0495556  32.2310806  20.8541328  30.9877520  32.1880907
  21.0477218  31.8923330  32.4340182  20.7541946  30.5284939  33.0219492
  12.5077639  20.8735410  34.6871235  11.8605554  21.5725360  34.5935711
  13.2778654  21.3071554  35.0547483  15.9156437  31.1384263  37.7621788
  15.7641943  30.9094814  36.8451872  15.9061116  32.0954864  37.7753133
  12.6841773  28.7116175  32.7468054  13.6133833  28.8627335  32.5737022
  12.2632803  28.8000196  31.8916701  11.4830105  32.7366840  30.5166592
  11.3441191  32.3685624  31.3892530  10.6944701  33.2514479  30.3450550
  12.0778257  37.8375936  21.8592129  12.2530013  37.3663979  22.6737751
  11.3911045  38.4641702  22.0873389  13.0335320  32.1148442  27.9055430
  12.6985153  32.0749212  28.8013080  12.5339266  31.4493158  27.4325840
   7.0079564  27.5216073  33.4308011   6.8699362  26.7896311  34.0319550
   7.9184487  27.4324973  33.1492199  15.9694512  29.4604477  18.1792490
  15.3523682  28.7351305  18.0825542  15.5011000  30.2213837  17.8359564
   9.6361865  27.2336032  32.9191691  10.3461483  26.5929224  32.8778309
   9.5931173  27.4848927  33.8417871  17.6248643  34.1703385  35.8398270
  17.5661189  33.4862605  35.1728853  18.0268162  34.9122375  35.3878896
   8.3490799  24.2201250  34.7387330   7.8128156  23.7691988  35.3908927
   7.7607507  24.3547159  33.9957795   6.6439342  40.9865299  28.6331989
   6.8835940  41.6183823  29.3111007   5.8008539  40.6353339  28.9197348
   7.7593058  23.6789901  17.3013794   6.8822524  23.5578702  16.9376040
   8.2350811  22.8875979  17.0492682  17.6266051  32.1342969  34.0712250
  16.7392829  31.7968891  34.1938648  18.1964602  31.4026000  34.3081015
   4.0829920  23.3557257  31.8240325   3.9988109  22.7482927  31.0890735
   3.2612626  23.8466276  31.8249821  11.1567204  36.7944421  31.0373493
  11.0837375  37.5999393  31.5492797  10.7144597  36.9936387  30.2121514
  10.9456984  36.0316192  24.5476314  10.1624506  36.5737872  24.6414539
  11.6449729  36.5490171  24.9470556  14.2553634  21.8410821  27.1910520
  14.7522333  21.0880783  26.8711590  13.4840615  21.8775138  26.6253729
  13.6165888  36.6931256  33.1931651  14.3293860  37.3278720  33.1207553
  13.1255916  36.7895121  32.3771653  15.3383414  30.5982508  24.7648943
  14.4039693  30.7183971  24.5953647  15.5160083  29.6954975  24.5008953
  10.8388602  23.9828204  26.9182204  10.4686390  23.4299244  27.6063110
  11.3347695  23.3786337  26.3657204  18.7255966  26.4399827  25.2998977
  19.1916418  27.2727819  25.2259280  19.1763466  25.9744809  26.0044236
   8.6677801  34.4425699  34.0137222   9.3687261  35.0762182  34.1666616
   8.1972916  34.7840431  33.2532862  16.7932197  32.7843649  22.2985129
  17.0692041  32.6700243  23.2079003  15.9236696  32.3861134  22.2597302
  16.6972629  18.8080414  29.3389879  15.7835708  19.0384641  29.5072086
  17.1265730  18.8918859  30.1903911  16.4679087  26.9970306  31.8389773
  15.8150537  27.2446214  31.1842225  16.8459467  26.1834445  31.5052250
  13.4286261  37.0330000  25.9417943  13.6108655  36.2151656  26.4045695
  14.2519247  37.2497692  25.5042833  13.7628426  35.9598185  23.2032991
  14.2916193  35.4490639  22.5903154  14.0256646  35.6440715  24.0678524
  12.5166660  27.7390117  38.3255810  11.8407297  27.6384247  38.9958185
  13.3394294  27.5829331  38.7891807   4.2645519  33.9762054  30.9468325
   4.8498956  33.2305742  31.0796229   4.0670358  34.2866011  31.8304989
   7.1184174  37.0113301  25.9630767   6.4494550  37.4959429  25.4794807
   6.9797044  37.2582522  26.8774146  11.2589443  39.0457045  32.5613426
  11.8107751  39.2088666  33.3262511  11.5995636  39.6361483  31.8893451
   6.2353936  21.3932195  33.1635310   6.2995263  22.2547026  32.7512708
   6.1721056  20.7806196  32.4307669   5.7106209  23.4655327  36.8108345
   6.3378247  23.0832405  37.4245869   4.8534128  23.2469529  37.1764037
  16.1100317  33.8718302  38.4162080  16.6540221  34.4848261  37.9217035
  15.5287162  34.4297881  38.9329093   2.4871751  25.2731756  22.7426699
   2.7825193  24.3642435  22.6893753   1.5859787  25.2519496  22.4207702
  14.3957830  36.9939020  29.5477108  14.2708970  36.1928760  29.0388053
  15.0536921  37.4885214  29.0591078   6.0165998  23.3487753  28.7254248
   5.2952584  23.9623721  28.5861721   6.8059254  23.8845518  28.6470894
  16.4592739  34.7948041  31.1756658  15.5123074  34.6753392  31.1034985
  16.8075512  33.9070539  31.2582919   8.8192312  20.6842179  34.9994900
   9.3426714  20.9304476  35.7621209   8.6004645  21.5162214  34.5798037
   4.2159593  22.9545854  22.8666025   3.8872299  22.0743233  22.6841131
   4.5698964  22.8993523  23.7542414  13.4639172  34.5900757  27.3761010
  13.3164134  33.6617464  27.5568580  14.2892665  34.6120847  26.8918085
   7.3301416  23.2418824  23.2341502   7.6697489  23.7704745  22.5120111
   7.7773537  23.5799230  24.0100069  17.0673294  35.4129315  28.4625883
  17.9919841  35.2072177  28.3250334  16.8988597  35.1645717  29.3715224
  10.0244857  21.6255875  32.6844570   9.6841677  20.8263688  33.0865250
   9.3183863  21.9257585  32.1121404  10.6761329  18.7105187  31.1371893
  11.4987398  18.2365665  31.0150784  10.9199392  19.4895671  31.6370580
   9.3169563  21.7393445  21.4334795  10.0377926  22.1174698  20.9298512
   8.6934867  22.4582322  21.5369773  13.4600686  22.4438594  22.3693127
  13.6764301  23.3263232  22.0681956  12.9794753  22.0524808  21.6398769
   8.1999908  25.4024308  28.9463872   8.0544488  25.7164611  29.8388154
   7.7225111  26.0209208  28.3934771  10.0596290  22.3926856  28.9944762
  10.0457859  21.4967949  28.6577060  10.7768719  22.3997519  29.6283048
  11.9122421  22.8264196  31.0397889  11.6540199  23.7481266  31.0382219
  11.3807462  22.4294630  31.7298353  16.8568610  35.9314983  23.8187974
  17.0305487  35.3661405  23.0661827  17.3497501  36.7315878  23.6367464
   2.6745570  27.9429652  31.8851533   2.1299038  28.7189460  32.0171808
   3.5524920  28.2900456  31.7270655   9.4633186  21.2741236  24.2632332
   9.5849098  20.3457882  24.4623219   9.1735229  21.2879922  23.3510647
  12.3324377  18.9596146  27.3999052  12.3546074  19.0235479  26.4451031
  12.7492436  18.1200655  27.5939558  17.8443782  35.2481747  20.9184873
  18.5394687  35.8688440  21.1372187  18.1866933  34.3977099  21.1937251
   3.4611592  27.0699548  34.7781690   2.7193328  27.2182184  35.3646320
   3.1404336  27.3307814  33.9148439  11.4055254  36.6115527  34.5762080
  11.7142381  36.3664673  35.4484780  12.2030736  36.8162165  34.0880950
  11.4275866  38.7653436  26.8067457  10.9880857  38.2729815  27.5000313
  12.1783983  38.2226404  26.5659532   3.9068205  34.9564977  26.8092085
   4.7326225  34.6568749  26.4290728   3.5562257  34.1872599  27.2581873
   8.8749738  34.3091445  28.8789758   8.2529748  33.6462150  28.5791986
   9.5454605  34.3352577  28.1963406   2.1076810  32.8751303  27.7681018
   1.2708719  32.4473478  27.5865020   2.0800456  33.0683747  28.7051809
   8.9474266  22.7873233  38.4722264   8.9962421  23.6635356  38.0900034
   9.4896780  22.2450626  37.8993908  19.4329112  33.3314357  37.7523401
  18.6424655  33.3138495  37.2127901  19.1962466  33.8702650  38.5072438
  19.5526987  30.1806823  35.0656130  19.6024992  30.0156830  36.0071653
  19.4440910  29.3134082  34.6754011   8.4363245  32.8595369  22.3548219
   8.5851366  33.5430833  21.7014892   9.2429689  32.8400459  22.8697675
  16.8430749  26.1637751  36.3815437  17.7440612  26.0244216  36.0899434
  16.9178724  26.3292206  37.3213614  11.1773554  23.5404606  35.2268623
  10.3076864  23.8338172  34.9551211  11.4133035  24.1245051  35.9475887
  21.0545183  32.6003764  35.3098151  20.7629992  32.9633745  36.1461612
  20.4417315  31.8870773  35.1311484  19.3032372  27.7236379  33.7778209
  19.7786493  27.9164025  32.9697061  18.3797937  27.7795565  33.5321593
   6.1915878  28.8860546  23.3609288   5.9461920  27.9822876  23.5589498
   6.3611793  28.8877697  22.4188766  13.8812588  19.7584223  32.7434043
  14.3994532  20.4945250  32.4180532  13.5267721  20.0648216  33.5780802
   5.4611526  24.6188904  20.8595449   4.7680771  24.6933259  20.2035485
   5.2163278  23.8549247  21.3816966  14.1325182  16.1784505  28.2634940
  14.4126936  15.5107694  28.8895366  14.9175789  16.3713601  27.7509604
  11.9358651  35.3543499  19.8259966  11.3632618  35.9733686  19.3730438
  12.5091445  35.9042861  20.3599888  18.0034041  24.6002139  32.0106515
  18.9551464  24.7000237  32.0318739  17.8337491  23.8080408  32.5204599
  16.0248420  21.6857722  32.1965916  15.4298352  21.9662735  31.5012405
  15.7398117  22.1751623  32.9682657  15.1555911  35.6380649  20.9568549
  16.0886584  35.5726211  21.1601424  15.0679123  36.4736916  20.4983081
  17.7843927  34.9546520  17.9172496  17.7057559  34.6206383  18.8108254
  18.6053594  35.4468287  17.9163968  12.3205449  26.6904312  17.1676019
  13.2664554  26.5610520  17.2364437  11.9419694  25.9518974  17.6445447
  20.6316607  24.6119302  31.1707098  20.1155656  23.8277759  30.9837027
  21.5156556  24.2838019  31.3353617  18.2927334  18.3560318  27.1302911
  18.0952155  18.0475406  28.0146243  18.9027039  19.0821957  27.2600840
  12.2044142  30.7422058  38.6276676  13.1247151  30.9200657  38.8216722
  12.1693725  29.7978103  38.4756375  10.5048367  24.6154288  17.1030904
   9.5979822  24.3187401  17.1793618  10.7824348  24.3184106  16.2365190
   1.4226307  25.9360652  27.5529950   1.1029091  25.0825960  27.2604324
   0.8759735  26.1509230  28.3087918   5.2006214  28.6523093  31.2699457
   5.4192224  29.5840200  31.2887491   5.6131988  28.2931067  32.0554261
  12.1210432  19.1591178  23.2575145  11.3111161  18.8138263  23.6330391
  12.8094849  18.8498722  23.8462757  14.0500981  18.2369225  24.8799442
  14.6032019  18.6564678  25.5389465  14.2871067  17.3104973  24.9222398
  10.0734080  24.2256298  40.6602206   9.9730807  25.1750655  40.5914297
   9.8555622  23.8974537  39.7878276   9.2747151  21.4741223  17.2442883
  10.1366315  21.7996122  17.5038701   9.4597495  20.6872719  16.7315949
   1.2914567  29.5563563  29.5223072   0.5978038  29.1417516  29.0093026
   2.0387558  29.5984100  28.9256491  17.4279788  20.3469750  24.3878106
  16.8478457  21.0054554  24.0056159  17.1615720  19.5247094  23.9765524
  15.8783354  19.7474808  26.5899426  16.3783132  19.8591342  25.7813745
  16.5218962  19.4435860  27.2300235   9.9365350  27.6553437  39.4767267
   9.4532432  28.4553797  39.6831156  10.0226289  27.6661382  38.5234711
   3.2051309  29.4881817  27.3989087   3.1821998  29.5869504  26.4470970
   3.5151946  30.3346968  27.7206253   5.8638687  31.5457972  31.5135701
   6.8181941  31.5141914  31.4465633   5.6651211  31.0848596  32.3285927
   6.4538069  30.1159088  34.0806499   7.2730958  30.6103167  34.1041336
   6.7274877  29.1991056  34.0524066  16.2104666  22.5069840  23.4434454
  15.3230521  22.7919491  23.2254649  16.6258655  22.3463604  22.5961731
  19.5619202  22.5316361  27.1588794  20.3379592  23.0212814  27.4313410
  18.8367336  22.9574415  27.6160663  21.9991760  23.2443980  28.2162734
  22.5936251  23.0039716  27.5056043  22.0718344  22.5251111  28.8436271
   4.2188916  37.0877591  28.5305899   4.0843384  36.3277992  27.9643897
   3.8020978  37.8118491  28.0634688  15.3547879  32.2714515  17.5382474
  16.0583729  32.4764517  18.1540130  14.6310528  32.8391277  17.8031558
  16.1845689  28.0224376  23.6584745  16.1280891  28.4792928  22.8192377
  16.7374032  27.2615061  23.4807587  19.9950495  23.8114108  24.4834864
  19.7387430  23.4110744  25.3143072  19.3703363  24.5257902  24.3585003
   7.3758042  37.9846908  28.7424342   7.2590426  38.9292341  28.6403032
   6.5550488  37.6820470  29.1310141  17.2634577  32.7097044  19.5880934
  18.0980180  32.2778243  19.4058409  17.1018919  32.5379058  20.5157829
  16.9180469  29.2129157  20.9537274  16.8629272  29.0473429  20.0125718
  16.2926524  29.9205190  21.1099463   1.7072984  24.4497222  34.7798696
   2.3531847  23.9396176  35.2685921   1.4990135  25.1865903  35.3542121
  14.2326376  31.5178069  40.2790837  15.1017536  31.6918722  39.9177471
  13.7533127  32.3372486  40.1566566  10.2276594  18.7137266  20.5322592
  10.2155264  19.6579106  20.6890863  11.1200016  18.5307412  20.2382053
   8.4012556  38.6375170  31.9580270   9.3039803  38.6698781  32.2746765
   8.1749926  37.7075621  31.9726606  10.1566158  37.3906157  28.6190349
   9.2061789  37.3908018  28.5054721  10.4598644  36.6438891  28.1026383
  14.0428714  15.3080043  24.7868529  13.2761109  14.7538530  24.9325211
  14.4539419  15.3801912  25.6482681   6.0470475  21.5964839  38.8773710
   6.9101936  21.2401644  39.0877035   5.4735885  21.2578734  39.5649114
  25.8918852  43.2266695  29.6836111  26.5297262  43.1073443  28.9799451
  25.7739695  44.1747539  29.7424063  22.7008558  43.1794123  29.6197636
  22.3627069  43.0635188  28.7318171  23.5698326  42.7785288  29.5998642
  18.5595374  45.0329600  25.6094527  17.9960239  44.9419537  24.8410815
  18.4447769  44.2129504  26.0897019  23.1828341  44.3328975  35.5783841
  23.1716982  43.9381773  34.7064345  23.3448980  43.5995048  36.1717613
  16.1059806  46.5280791  28.4478747  16.8981097  46.1871616  28.0325047
  16.3456456  46.6375766  29.3680901  24.1394932  48.7000567  20.9208992
  23.4882912  49.2854648  20.5343006  24.9339295  49.2306762  20.9804029
  18.0650559  45.7889705  21.3196126  18.8381435  45.2418692  21.1809002
  18.4175958  46.6533954  21.5310588  19.9035602  47.1166087  34.5263025
  19.6125468  48.0211718  34.4109692  20.5392586  47.1582614  35.2407095
  20.8291809  44.4942935  31.1164385  21.4255381  44.2698958  30.4021348
  20.8866780  43.7527681  31.7189833  20.4016837  41.9482371  18.9514576
  20.6542358  41.4263892  18.1898039  19.4641396  41.7848516  19.0541260
  25.4460120  40.9518149  26.7589319  26.2323209  40.5337572  26.4079736
  25.7098824  41.8564241  26.9270968  25.6170197  46.3890999  21.4577976
  24.9816030  46.4625626  22.1698881  25.2867604  46.9784598  20.7797055
  30.8468547  40.8893382  27.6622298  31.5793719  40.3192599  27.8960127
  30.0907903  40.5014983  28.1028803  20.1213126  43.8510477  21.1538951
  20.0049384  43.1755380  21.8220035  20.2315386  43.3642851  20.3371104
  22.4644667  43.3120624  24.8585640  22.1002874  42.7851245  25.5698562
  23.3211783  42.9219093  24.6852126  22.1050154  38.3410523  19.8546989
  22.2724556  39.2090760  20.2217460  21.9147323  38.5037805  18.9308278
  24.8625487  46.8027502  31.5212819  24.5626210  47.7052541  31.4128626
  24.5176547  46.5359686  32.3733972  18.3137969  43.2541299  27.5549524
  17.3888465  43.1217513  27.7627215  18.5622382  44.0335518  28.0519466
  28.2622631  39.3210043  29.2010256  27.3539508  39.2525451  28.9069017
  28.2110227  39.7981987  30.0292082  22.0839375  40.7968181  20.8393656
  21.9639000  41.2425232  21.6779136  21.3891963  41.1453499  20.2807194
  15.6746780  42.8974573  28.3893313  15.8039161  43.1509052  29.3032724
  14.9944231  43.4902281  28.0697968  22.3363497  40.7399688  37.1445154
  21.5596831  41.2993608  37.1348018  22.9754060  41.2256471  37.6660024
  30.1284277  37.5226481  30.9788130  29.4858658  37.8159014  30.3327925
  29.6239206  37.4079401  31.7841327  27.7824441  41.2689654  21.6673990
  28.6942297  41.5017041  21.4921687  27.2734088  41.8526698  21.1049068
  20.5909869  43.5485142  36.7063121  21.3324553  44.0870185  36.4297944
  19.8846854  44.1751430  36.8634672  26.0665209  45.6914282  35.3035282
  26.4748565  45.2496692  34.5589915  25.3442470  45.1166909  35.5569475
  22.4196279  40.6286889  32.6768839  23.2657474  41.0526302  32.8203488
  22.3594916  39.9720513  33.3707402  26.3894023  46.2515473  29.0587571
  25.7602886  46.4161187  28.3563639  26.0019685  46.6657082  29.8298535
  30.2683255  47.1869910  26.4131935  29.5834293  47.5668812  25.8628968
  30.3527104  47.7965237  27.1463883  25.5695724  38.2891257  34.3350013
  25.3256656  39.0433318  33.7984288  25.8455655  38.6676605  35.1697260
  27.5234187  44.8329869  33.0127278  27.7351082  45.4761629  32.3361659
  27.4763935  43.9992186  32.5449208  25.1260416  37.4447690  29.9163850
  24.2644895  37.7428944  30.2080588  25.1522850  37.6618089  28.9844883
  21.9421985  45.9889881  26.3237656  22.4060331  46.2677584  25.5342279
  21.6778783  45.0873325  26.1410747  18.8346066  45.5361362  29.2617419
  19.4047423  45.9648631  28.6234904  19.4254178  45.2543947  29.9601605
  20.8790871  42.1113033  23.1327221  21.5814915  42.5634077  23.6001148
  20.5471500  41.4696852  23.7607114  19.3271233  40.7024790  37.5078431
  18.6969893  41.3841071  37.7413828  19.2207321  40.5907871  36.5631569
  14.6216205  40.3696586  28.4344355  13.8315259  40.6254114  27.9584465
  15.1127453  41.1844924  28.5396395  28.6380015  47.7101825  31.1849636
  29.4597458  47.3082012  30.9032317  28.6342418  47.6070059  32.1365751
  16.5730951  40.7341165  25.3927832  15.7762114  40.8459859  25.9111327
  16.3456543  41.0727817  24.5268722  22.4036618  47.2585868  33.3410346
  22.4681051  47.7206275  34.1768518  21.6947542  46.6283233  33.4692656
  12.9053908  40.6227076  30.8659346  13.1561947  41.5074086  31.1316922
  13.4413457  40.4431678  30.0934437  36.7286008  44.0540573  27.5334607
  35.9749716  43.4847971  27.3778612  36.8633549  44.0203238  28.4805242
  22.1184636  48.9253976  23.2089327  21.9830311  49.7705511  23.6374174
  22.6594448  49.1273253  22.4455260  18.6051975  35.0045556  39.8703682
  18.2118921  34.4511754  40.5451326  19.4218116  35.3156134  40.2610199
  15.5714033  46.4429414  23.7817252  16.0838554  47.2372664  23.9322816
  16.2236746  45.7455704  23.7150853  17.3808918  49.5595170  25.8640005
  17.5575546  50.4813135  25.6760989  18.1765751  49.2453589  26.2934385
  21.5219936  36.4203435  37.4623938  22.2629650  37.0210588  37.3828401
  21.7537859  35.6781072  36.9041981  16.6661274  41.6059802  35.7402168
  16.5514790  40.7045059  36.0409267  15.8105792  41.8523499  35.3886985
  23.7453112  49.5477542  37.3389669  23.3016966  48.7613921  37.0210573
  24.4070326  49.7356693  36.6733559  18.5040233  51.0773344  31.8650347
  19.0547659  50.9490407  31.0927341  17.6651709  51.3768233  31.5145240
  25.8434350  49.8280342  35.3671070  25.8252826  50.6489223  34.8751339
  26.7654270  49.7034417  35.5921211  22.3007404  47.3424472  36.2094578
  22.8335741  46.5812760  35.9793886  21.7721486  47.0498123  36.9518733
  13.5362950  44.7718068  24.5576822  14.3738172  45.1815076  24.3410530
  13.7141218  43.8317510  24.5277016  25.4327382  42.4393149  20.2460655
  24.9174006  43.2097753  20.4849043  25.1604691  41.7658285  20.8693717
  23.0174493  37.2842849  25.3045893  22.1616089  36.8949700  25.1251532
  23.4301445  37.3634810  24.4445679  30.4061656  45.1925503  22.1813829
  29.6291099  44.8536663  21.7368991  31.0853137  45.1978126  21.5068794
  25.2213685  40.3120241  22.0720436  24.9163821  40.6266390  22.9230579
  26.1744127  40.3901661  22.1147769  23.6660117  46.4710464  23.7213390
  23.1381479  45.7363224  23.4086628  23.1647620  47.2485140  23.4753359
  28.6452963  44.6659485  28.8380437  27.9876638  45.3558746  28.9260565
  29.4493362  45.0555916  29.1814423  18.3978845  37.1330130  26.0820002
  18.9722597  36.9105312  25.3493195  18.9849827  37.2018825  26.8348603
  27.4558422  43.0203857  26.8884378  27.9690304  43.6533849  27.3906088
  28.1059646  42.4205053  26.5227738  18.7248432  39.1634591  20.1015887
  17.8885744  39.5009278  20.4225162  18.5853201  39.0283571  19.1643024
  21.8112717  44.2890674  16.7248363  20.9039779  44.0579928  16.9239512
  22.3083749  43.4928294  16.9122345  24.7180796  52.9988182  19.6445049
  24.0442495  53.3019878  20.2530007  25.1046618  53.8017262  19.2950507
  23.9339253  40.4953313  29.1342719  23.0161814  40.7168260  28.9764407
  24.3499396  40.5699623  28.2754426  24.7174301  41.8944728  24.2645399
  25.4646120  42.4066126  23.9552521  24.9865890  41.5728781  25.1249793
  22.9900951  44.3903269  21.2472353  22.0812170  44.1062302  21.3444823
  23.0196035  44.8102348  20.3875660  28.2220218  48.0009859  25.0163521
  27.7682545  47.1600769  25.0728711  27.5914185  48.6371257  25.3538301
  27.1653138  38.9301845  26.2464188  26.4275895  38.4179231  26.5774431
  27.4179911  38.4902226  25.4347465  26.6653157  49.8386355  25.9513339
  26.9576132  50.3991412  25.2325705  27.1751778  50.1314916  26.7066498
  13.5589121  42.1108783  25.2287556  13.3613521  41.5178144  24.5038622
  13.0035785  41.8060994  25.9463494  21.5385845  42.0031890  27.3482149
  21.5934455  41.0505726  27.2724625  20.7277047  42.1591329  27.8323447
  22.6877039  45.9312013  18.5860432  22.2496468  45.2147872  18.1266069
  23.4287479  46.1588128  18.0245523  19.4778205  40.6208950  25.1072528
  18.6646070  40.9203120  25.5137720  19.9737199  40.2264638  25.8247010
  21.6286783  50.6166706  27.0406792  21.5862961  50.8427553  26.1115324
  22.5449481  50.3830081  27.1892593  25.0752416  41.0850774  33.9387422
  25.4301804  41.3122247  34.7981887  25.7224548  41.4169151  33.3164677
  30.8050153  44.2069210  24.6436751  30.6668052  44.3970806  23.7157940
  30.4486372  44.9688593  25.1004802  18.9692279  38.1927305  30.7233763
  19.6091659  38.0516064  30.0256726  18.1369810  37.9061818  30.3472365
  30.8319533  46.2745737  29.6548022  31.2656040  46.1821026  30.5031076
  31.5451114  46.2503237  29.0168038  19.7452583  47.4929735  26.8368755
  20.5393182  46.9980056  26.6351330  19.0344276  46.9647599  26.4736461
  24.5647428  49.8747831  31.1881123  24.6184450  50.4438767  31.9558839
  23.6962209  50.0449716  30.8235160  16.0535347  41.6372817  22.9128508
  15.1232935  41.5757273  23.1298470  16.1492819  41.1148770  22.1165149
  15.9720896  38.1627630  25.5006749  16.2327713  39.0772963  25.3915910
  16.7938068  37.6952073  25.6503362  17.4445821  39.5765387  32.6705574
  18.1168875  39.3682749  32.0218223  16.6175608  39.3787473  32.2310806
  31.6935083  46.3169438  32.1880907  31.8870973  47.2215248  32.4340182
  31.5935701  45.8576857  33.0219492  23.3471393  36.2027328  34.6871235
  22.6999308  36.9017278  34.5935711  24.1172409  36.6363472  35.0547483
  26.7550191  46.4676180  37.7621788  26.6035698  46.2386732  36.8451872
  26.7454871  47.4246782  37.7753133  23.5235528  44.0408093  32.7468054
  24.4527588  44.1919253  32.5737022  23.1026558  44.1292114  31.8916701
  22.3223859  48.0658757  30.5166592  22.1834945  47.6977542  31.3892530
  21.5338456  48.5806397  30.3450550  22.9172011  53.1667854  21.8592129
  23.0923767  52.6955897  22.6737751  22.2304799  53.7933620  22.0873389
  23.8729075  47.4440360  27.9055430  23.5378907  47.4041130  28.8013080
  23.3733020  46.7785076  27.4325840  17.8473318  42.8507990  33.4308011
  17.7093116  42.1188229  34.0319550  18.7578242  42.7616890  33.1492199
  26.8088266  44.7896395  18.1792490  26.1917437  44.0643223  18.0825542
  26.3404755  45.5505755  17.8359564  20.4755619  42.5627950  32.9191691
  21.1855238  41.9221142  32.8778309  20.4324927  42.8140844  33.8417871
  28.4642398  49.4995303  35.8398270  28.4054944  48.8154523  35.1728853
  28.8661916  50.2414293  35.3878896  19.1884553  39.5493167  34.7387330
  18.6521910  39.0983906  35.3908927  18.6001262  39.6839076  33.9957795
  18.5986812  39.0081819  17.3013794  17.7216278  38.8870620  16.9376040
  19.0744565  38.2167897  17.0492682  28.4659805  47.4634887  34.0712250
  27.5786584  47.1260809  34.1938648  29.0358356  46.7317918  34.3081015
  10.1188952  43.7958979  27.3955301  10.8059992  43.4820709  26.8076316
   9.9637081  44.7000343  27.1222552  14.9223674  38.6849175  31.8240325
  14.8381863  38.0774845  31.0890735  14.1006381  39.1758193  31.8249821
  21.9960958  52.1236339  31.0373493  21.9231130  52.9291311  31.5492797
  21.5538352  52.3228305  30.2121514  21.7850738  51.3608109  24.5476314
  21.0018260  51.9029789  24.6414539  22.4843483  51.8782089  24.9470556
  32.9477146  42.8743104  28.8328811  32.9367022  43.7567820  28.4622744
  32.0794525  42.5214655  28.6383348  24.4559642  52.0223173  33.1931651
  25.1687614  52.6570638  33.1207553  23.9649671  52.1187039  32.3771653
  26.1777169  45.9274426  24.7648943  25.2433448  46.0475888  24.5953647
  26.3553837  45.0246893  24.5008953  21.6782357  39.3120122  26.9182204
  21.3080145  38.7591162  27.6063110  22.1741449  38.7078255  26.3657204
  29.5649720  41.7691745  25.2998977  30.0310172  42.6019737  25.2259280
  30.0157221  41.3036727  26.0044236  19.5071556  49.7717617  34.0137222
  20.2081015  50.4054100  34.1666616  19.0366671  50.1132348  33.2532862
  27.6325951  48.1135566  22.2985129  27.9085795  47.9992161  23.2079003
  26.7630450  47.7153051  22.2597302  27.3072842  42.3262224  31.8389773
  26.6544292  42.5738132  31.1842225  27.6853221  41.5126362  31.5052250
  24.2680015  52.3621917  25.9417943  24.4502410  51.5443573  26.4045695
  25.0913001  52.5789610  25.5042833  24.6022181  51.2890102  23.2032991
  25.1309947  50.7782557  22.5903154  24.8650400  50.9732633  24.0678524
  23.3560415  43.0682035  38.3255810  22.6801052  42.9676164  38.9958185
  24.1788048  42.9121249  38.7891807  15.1039274  49.3053972  30.9468325
  15.6892710  48.5597660  31.0796229  14.9064112  49.6157928  31.8304989
  17.9577929  52.3405219  25.9630767  17.2888304  52.8251347  25.4794807
  17.8190799  52.5874440  26.8774146   9.6956928  41.8759572  29.6672768
   9.7341028  41.3423163  30.4609886   9.1897221  41.3494777  29.0483745
  22.0983197  54.3748963  32.5613426  22.6501505  54.5380584  33.3262511
  22.4389391  54.9653400  31.8893451  17.0747691  36.7224112  33.1635310
  17.1389017  37.5838943  32.7512708  17.0114811  36.1098114  32.4307669
  16.5499963  38.7947245  36.8108345  17.1772002  38.4124322  37.4245869
  15.6927882  38.5761447  37.1764037  26.9494072  49.2010220  38.4162080
  27.4933976  49.8140178  37.9217035  26.3680917  49.7589799  38.9329093
  13.3265506  40.6023674  22.7426699  13.6218947  39.6934352  22.6893753
  12.4253542  40.5811414  22.4207702  25.2351585  52.3230938  29.5477108
  25.1102724  51.5220678  29.0388053  25.8930676  52.8177132  29.0591078
  16.8559753  38.6779671  28.7254248  16.1346339  39.2915638  28.5861721
  17.6453009  39.2137435  28.6470894  27.2986493  50.1239958  31.1756658
  26.3516829  50.0045309  31.1034985  27.6469266  49.2362456  31.2582919
  19.6586066  36.0134097  34.9994900  20.1820468  36.2596394  35.7621209
  19.4398400  36.8454132  34.5798037  15.0553348  38.2837772  22.8666025
  14.7266054  37.4035151  22.6841131  15.4092718  38.2285440  23.7542414
  24.3032926  49.9192674  27.3761010  24.1557889  48.9909382  27.5568580
  25.1286420  49.9412765  26.8918085  18.1695171  38.5710742  23.2341502
  18.5091243  39.0996663  22.5120111  18.6167291  38.9091148  24.0100069
  27.9067048  50.7421233  28.4625883  28.8313596  50.5364095  28.3250334
  27.7382352  50.4937634  29.3715224  20.8638611  36.9547792  32.6844570
  20.5235432  36.1555605  33.0865250  20.1577618  37.2549503  32.1121404
  21.5155083  34.0397105  31.1371893  22.3381153  33.5657583  31.0150784
  21.7593147  34.8187588  31.6370580  20.1563318  37.0685363  21.4334795
  20.8771680  37.4466616  20.9298512  19.5328622  37.7874240  21.5369773
  24.2994441  37.7730512  22.3693127  24.5158055  38.6555150  22.0681956
  23.8188508  37.3816725  21.6398769  19.0393662  40.7316225  28.9463872
  18.8938243  41.0456528  29.8388154  18.5618866  41.3501126  28.3934771
  20.8990045  37.7218773  28.9944762  20.8851614  36.8259867  28.6577060
  21.6162473  37.7289437  29.6283048  22.7516176  38.1556113  31.0397889
  22.4933953  39.0773184  31.0382219  22.2201216  37.7586548  31.7298353
  27.6962364  51.2606901  23.8187974  27.8699242  50.6953323  23.0661827
  28.1891256  52.0607796  23.6367464  13.5139324  43.2721570  31.8851533
  12.9692792  44.0481378  32.0171808  14.3918674  43.6192374  31.7270655
  33.5501756  44.0243324  25.4378274  33.9932902  43.2750649  25.0397397
  32.6728266  44.0153460  25.0552006  28.6837537  50.5773665  20.9184873
  29.3788442  51.1980358  21.1372187  29.0260687  49.7269016  21.1937251
  14.3005346  42.3991466  34.7781690  13.5587082  42.5474101  35.3646320
  13.9798090  42.6599732  33.9148439  30.5828960  48.0273371  22.4472203
  31.1080284  48.3660643  21.7221523  30.4951313  47.0920386  22.2635338
  22.2449009  51.9407444  34.5762080  22.5536135  51.6956591  35.4484780
  23.0424491  52.1454083  34.0880950  22.2669621  54.0945354  26.8067457
  21.8274611  53.6021733  27.5000313  23.0177738  53.5518321  26.5659532
  14.7461960  50.2856895  26.8092085  15.5719980  49.9860667  26.4290728
  14.3956012  49.5164517  27.2581873  19.7143493  49.6383363  28.8789758
  19.0923502  48.9754068  28.5791986  20.3848360  49.6644495  28.1963406
  12.9470565  48.2043221  27.7681018  12.1102473  47.7765396  27.5865020
  12.9194210  48.3975664  28.7051809  19.7868020  38.1165151  38.4722264
  19.8356176  38.9927274  38.0900034  20.3290535  37.5742544  37.8993908
  30.2722866  48.6606274  37.7523401  29.4818410  48.6430413  37.2127901
  30.0356221  49.1994568  38.5072438  30.3920741  45.5098741  35.0656130
  30.4418746  45.3448748  36.0071653  30.2834664  44.6426000  34.6754011
  19.2757000  48.1887286  22.3548219  19.4245120  48.8722751  21.7014892
  20.0823443  48.1692376  22.8697675  27.6824504  41.4929669  36.3815437
  28.5834366  41.3536133  36.0899434  27.7572478  41.6584123  37.3213614
  22.0167309  38.8696523  35.2268623  21.1470618  39.1630089  34.9551211
  22.2526789  39.4536968  35.9475887  31.8938938  47.9295682  35.3098151
  31.6023746  48.2925663  36.1461612  31.2811069  47.2162690  35.1311484
  33.0934620  45.4948562  27.8300722  33.9281512  45.9338366  27.9938282
  33.2293749  45.0187215  27.0108967  30.1426126  43.0528297  33.7778209
  30.6180248  43.2455943  32.9697061  29.2191692  43.1087483  33.5321593
  17.0309633  44.2152464  23.3609288  16.7855675  43.3114794  23.5589498
  17.2005547  44.2169614  22.4188766  24.7206343  35.0876140  32.7434043
  25.2388287  35.8237167  32.4180532  24.3661475  35.3940134  33.5780802
  16.3005280  39.9480821  20.8595449  15.6074525  40.0225176  20.2035485
  16.0557032  39.1841165  21.3816966  22.7752405  50.6835417  19.8259966
  22.2026372  51.3025604  19.3730438  23.3485199  51.2334778  20.3599888
  28.8427795  39.9294057  32.0106515  29.7945218  40.0292154  32.0318739
  28.6731246  39.1372325  32.5204599  26.8642175  37.0149640  32.1965916
  26.2692107  37.2954653  31.5012405  26.5791871  37.5043541  32.9682657
  25.9949665  50.9672567  20.9568549  26.9280338  50.9018129  21.1601424
  25.9072878  51.8028834  20.4983081  28.6237682  50.2838437  17.9172496
  28.5451313  49.9498301  18.8108254  29.4447349  50.7760205  17.9163968
  31.3215873  43.1500176  31.1248815  31.2892193  42.2116177  31.3108499
  31.9316497  43.2284213  30.3914640  23.1599204  42.0196229  17.1676019
  24.1058309  41.8902438  17.2364437  22.7813449  41.2810891  17.6445447
  31.4710361  39.9411220  31.1707098  30.9549410  39.1569677  30.9837027
  32.3550310  39.6129937  31.3353617  37.1392423  44.2116183  30.2654851
  37.8695811  43.9501471  30.8262555  36.5299368  43.4744905  30.3056919
  35.2207720  42.3524046  30.8629303  34.4940884  42.2180011  30.2545794
  34.8055007  42.6600875  31.6686021  23.0437896  46.0713976  38.6276676
  23.9640906  46.2492575  38.8216722  23.0087479  45.1270021  38.4756375
  21.3442121  39.9446206  17.1030904  20.4373576  39.6479319  17.1793618
  21.6218102  39.6476024  16.2365190  12.2620061  41.2652569  27.5529950
  11.9422846  40.4117877  27.2604324  11.7153490  41.4801147  28.3087918
  16.0399969  43.9815010  31.2699457  16.2585979  44.9132118  31.2887491
  16.4525743  43.6222985  32.0554261  20.9127834  39.5548216  40.6602206
  20.8124561  40.5042573  40.5914297  20.6949376  39.2266455  39.7878276
  20.1140906  36.8033141  17.2442883  20.9760070  37.1288039  17.5038701
  20.2991250  36.0164637  16.7315949  12.1308321  44.8855481  29.5223072
  11.4371793  44.4709434  29.0093026  12.8781312  44.9276017  28.9256491
  20.7759104  42.9845355  39.4767267  20.2926186  43.7845715  39.6831156
  20.8620043  42.9953300  38.5234711  14.0445064  44.8173735  27.3989087
  14.0215752  44.9161422  26.4470970  14.3545700  45.6638885  27.7206253
  16.7032442  46.8749890  31.5135701  17.6575695  46.8433832  31.4465633
  16.5044965  46.4140513  32.3285927  17.2931824  45.4451006  34.0806499
  18.1124713  45.9395084  34.1041336  17.5668632  44.5282974  34.0524066
  27.0498420  37.8361758  23.4434454  26.1624275  38.1211409  23.2254649
  27.4652409  37.6755521  22.5961731  30.4012956  37.8608279  27.1588794
  31.1773346  38.3504731  27.4313410  29.6761090  38.2866333  27.6160663
  32.8385515  38.5735898  28.2162734  33.4330006  38.3331634  27.5056043
  32.9112099  37.8543029  28.8436271  26.1941634  47.6006433  17.5382474
  26.8977484  47.8056435  18.1540130  25.4704282  48.1683194  17.8031558
  27.0239444  43.3516294  23.6584745  26.9674645  43.8084845  22.8192377
  27.5767786  42.5906978  23.4807587  30.8344250  39.1406026  24.4834864
  30.5781184  38.7402661  25.3143072  30.2097118  39.8549820  24.3585003
  35.1456588  41.8802099  26.9906155  34.5856146  41.9495288  27.7637718
  34.5400091  41.7043084  26.2705652  28.1028331  48.0388962  19.5880934
  28.9373935  47.6070160  19.4058409  27.9412674  47.8670975  20.5157829
  27.7574223  44.5421075  20.9537274  27.7023027  44.3765347  20.0125718
  27.1320278  45.2497108  21.1099463  12.5466738  39.7789139  34.7798696
  13.1925602  39.2688093  35.2685921  12.3383889  40.5157821  35.3542121
  25.0720130  46.8469987  40.2790837  25.9411290  47.0210639  39.9177471
  24.5926882  47.6664404  40.1566566  19.2406311  53.9667088  31.9580270
  20.1433557  53.9990698  32.2746765  19.0143681  53.0367539  31.9726606
  20.9959913  52.7198075  28.6190349  20.0455544  52.7199936  28.5054721
  21.2992399  51.9730809  28.1026383  16.8864229  36.9256757  38.8773710
  17.7495691  36.5693561  39.0877035  16.3129640  36.5870651  39.5649114
  36.7312606  58.5558613  29.6836111  37.3691016  58.4365360  28.9799451
  36.6133449  59.5039457  29.7424063  33.5402312  58.5086041  29.6197636
  33.2020824  58.3927106  28.7318171  34.4092081  58.1077206  29.5998642
  31.2410592  57.2774288  18.9514576  31.4936112  56.7555810  18.1898039
  30.3035151  57.1140434  19.0541260  36.2853875  56.2810067  26.7589319
  37.0716964  55.8629490  26.4079736  36.5492579  57.1856159  26.9270968
  41.6862302  56.2185300  27.6622298  42.4187474  55.6484517  27.8960127
  40.9301657  55.8306900  28.1028803  33.3038421  58.6412541  24.8585640
  32.9396629  58.1143162  25.5698562  34.1605537  58.2511010  24.6852126
  39.2087722  49.9306874  32.1216906  38.8771047  50.8002285  31.8978121
  38.6133335  49.6143158  32.8010937  32.9443908  53.6702441  19.8546989
  33.1118311  54.5382678  20.2217460  32.7541077  53.8329723  18.9308278
  39.1016385  54.6501960  29.2010256  38.1933263  54.5817369  28.9069017
  39.0503981  55.1273905  30.0292082  32.9233129  56.1260099  20.8393656
  32.8032754  56.5717149  21.6779136  32.2285718  56.4745416  20.2807194
  33.1757251  56.0691606  37.1445154  32.3990585  56.6285526  37.1348018
  33.8147814  56.5548389  37.6660024  40.9678032  52.8518399  30.9788130
  40.3252412  53.1450932  30.3327925  40.4632960  52.7371319  31.7841327
  38.6218195  56.5981572  21.6673990  39.5336052  56.8308959  21.4921687
  38.1127843  57.1818616  21.1049068  33.2590033  55.9578806  32.6768839
  34.1051228  56.3818220  32.8203488  33.1988671  55.3012431  33.3707402
  36.4089478  53.6183175  34.3350013  36.1650410  54.3725235  33.7984288
  36.6849409  53.9968522  35.1697260  35.9654170  52.7739608  29.9163850
  35.1038649  53.0720861  30.2080588  35.9916605  52.9910007  28.9844883
  31.7184626  57.4404951  23.1327221  32.4208669  57.8925994  23.6001148
  31.3865254  56.7988770  23.7607114  30.1664987  56.0316707  37.5078431
  29.5363648  56.7132988  37.7413828  30.0601075  55.9199789  36.5631569
  25.4609960  55.6988503  28.4344355  24.6709014  55.9546032  27.9584465
  25.9521207  56.5136841  28.5396395  27.4124705  56.0633083  25.3927832
  26.6155868  56.1751777  25.9111327  27.1850297  56.4019735  24.5268722
  29.4445730  50.3337473  39.8703682  29.0512676  49.7803672  40.5451326
  30.2611870  50.6448052  40.2610199  32.3613691  51.7495352  37.4623938
  33.1023404  52.3502505  37.3828401  32.5931614  51.0072990  36.9041981
  36.3070854  47.7776455  31.7388220  35.9635123  48.6678097  31.6627331
  36.6749816  47.5878113  30.8757805  36.2721137  57.7685066  20.2460655
  35.7567760  58.5389671  20.4849043  35.9998445  57.0950202  20.8693717
  33.8568248  52.6134767  25.3045893  33.0009844  52.2241618  25.1251532
  34.2695199  52.6926728  24.4445679  35.3867394  50.1481110  29.7037453
  34.8832190  50.1111246  28.8905259  35.6798001  51.0573853  29.7634110
  31.6310280  50.2319840  28.7103635  32.4963277  50.0362649  28.3509524
  31.6987789  50.0030192  29.6372992  36.0607440  55.6412158  22.0720436
  35.7557575  55.9558308  22.9230579  37.0137882  55.7193578  22.1147769
  29.2372599  52.4622048  26.0820002  29.8116351  52.2397230  25.3493195
  29.8243582  52.5310743  26.8348603  38.2952176  58.3495775  26.8884378
  38.8084058  58.9825767  27.3906088  38.9453400  57.7496970  26.5227738
  29.5642186  54.4926509  20.1015887  28.7279499  54.8301196  20.4225162
  29.4246956  54.3575489  19.1643024  31.5395267  49.3363297  24.8095071
  30.8859679  49.0212314  24.1851686  31.4975741  48.7139037  25.5354894
  34.7733007  55.8245230  29.1342719  33.8555569  56.0460177  28.9764407
  35.1893151  55.8991541  28.2754426  35.5568055  57.2236646  24.2645399
  36.3039874  57.7358043  23.9552521  35.8259645  56.9020699  25.1249793
  38.0046892  54.2593762  26.2464188  37.2669649  53.7471149  26.5774431
  38.2573666  53.8194144  25.4347465  38.1058520  47.0370014  26.8405958
  38.4117396  46.1767378  26.5531873  38.8311124  47.6287635  26.6404952
  32.3779599  57.3323807  27.3482149  32.4328209  56.3797644  27.2724625
  31.5670801  57.4883247  27.8323447  30.3171959  55.9500867  25.1072528
  29.5039825  56.2495038  25.5137720  30.8130953  55.5556556  25.8247010
  35.9146171  56.4142692  33.9387422  36.2695559  56.6414165  34.7981887
  36.5618302  56.7461068  33.3164677  29.8086034  53.5219223  30.7233763
  30.4485413  53.3807982  30.0256726  28.9763565  53.2353736  30.3472365
  26.8114650  53.4919548  25.5006749  27.0721468  54.4064881  25.3915910
  27.6331823  53.0243990  25.6503362  28.2839576  54.9057305  32.6705574
  28.9562629  54.6974667  32.0218223  27.4569362  54.7079391  32.2310806
  34.1865148  51.5319246  34.6871235  33.5393063  52.2309195  34.5935711
  34.9566163  51.9655390  35.0547483  34.3629282  59.3700011  32.7468054
  35.2921342  59.5211170  32.5737022  33.9420312  59.4584032  31.8916701
  31.3149374  57.8919867  32.9191691  32.0248992  57.2513059  32.8778309
  31.2718682  58.1432762  33.8417871  30.0278308  54.8785085  34.7387330
  29.4915665  54.4275824  35.3908927  29.4395016  55.0130994  33.9957795
  29.4380567  54.3373737  17.3013794  28.5610033  54.2162537  16.9376040
  29.9138320  53.5459815  17.0492682  25.7617429  54.0141093  31.8240325
  25.6775618  53.4066762  31.0890735  24.9400135  54.5050111  31.8249821
  35.9341143  52.4994656  27.1910520  36.4309842  51.7464619  26.8711590
  35.1628124  52.5358973  26.6253729  32.5176111  54.6412039  26.9182204
  32.1473899  54.0883080  27.6063110  33.0135204  54.0370173  26.3657204
  40.4043475  57.0983663  25.2998977  40.8703927  57.9311654  25.2259280
  40.8550975  56.6328644  26.0044236  38.3760138  49.4664250  29.3389879
  37.4623217  49.6968477  29.5072086  38.8053239  49.5502694  30.1903911
  38.1466596  57.6554142  31.8389773  37.4938046  57.9030049  31.1842225
  38.5246976  56.8418280  31.5052250  34.1954169  58.3973953  38.3255810
  33.5194806  58.2968082  38.9958185  35.0181803  58.2413167  38.7891807
  27.9141445  52.0516030  33.1635310  27.9782772  52.9130861  32.7512708
  27.8508565  51.4390032  32.4307669  27.3893718  54.1239163  36.8108345
  28.0165756  53.7416240  37.4245869  26.5321637  53.9053365  37.1764037
  27.6953507  54.0071588  28.7254248  26.9740093  54.6207556  28.5861721
  28.4846763  54.5429353  28.6470894  30.4979821  51.3426015  34.9994900
  31.0214223  51.5888311  35.7621209  30.2792154  52.1746050  34.5798037
  25.8947102  53.6129689  22.8666025  25.5659808  52.7327068  22.6841131
  26.2486473  53.5577358  23.7542414  29.0088925  53.9002659  23.2341502
  29.3484998  54.4288580  22.5120111  29.4561046  54.2383065  24.0100069
  31.7032366  52.2839710  32.6844570  31.3629186  51.4847523  33.0865250
  30.9971372  52.5841421  32.1121404  32.3548838  49.3689022  31.1371893
  33.1774907  48.8949501  31.0150784  32.5986901  50.1479506  31.6370580
  30.9957072  52.3977281  21.4334795  31.7165435  52.7758534  20.9298512
  30.3722376  53.1166158  21.5369773  35.1388195  53.1022430  22.3693127
  35.3551810  53.9847068  22.0681956  34.6582262  52.7108643  21.6398769
  29.8787417  56.0608143  28.9463872  29.7331997  56.3748446  29.8388154
  29.4012620  56.6793043  28.3934771  31.7383799  53.0510691  28.9944762
  31.7245368  52.1551784  28.6577060  32.4556228  53.0581355  29.6283048
  33.5909930  53.4848031  31.0397889  33.3327708  54.4065102  31.0382219
  33.0594971  53.0878466  31.7298353  31.1420695  51.9325071  24.2632332
  31.2636607  51.0041717  24.4623219  30.8522738  51.9463757  23.3510647
  34.0111886  49.6179982  27.3999052  34.0333583  49.6819315  26.4451031
  34.4279945  48.7784490  27.5939558  30.6261775  53.4457069  38.4722264
  30.6749930  54.3219191  38.0900034  31.1684289  52.9034462  37.8993908
  38.5218258  56.8221586  36.3815437  39.4228121  56.6828051  36.0899434
  38.5966233  56.9876041  37.3213614  32.8561063  54.1988441  35.2268623
  31.9864373  54.4922007  34.9551211  33.0920544  54.7828886  35.9475887
  35.5600097  50.4168058  32.7434043  36.0782041  51.1529085  32.4180532
  35.2055230  50.7232051  33.5780802  27.1399035  55.2772739  20.8595449
  26.4468280  55.3517094  20.2035485  26.8950787  54.5133083  21.3816966
  35.8112691  46.8368340  28.2634940  36.0914445  46.1691530  28.8895366
  36.5963298  47.0297436  27.7509604  39.6821550  55.2585974  32.0106515
  40.6338973  55.3584072  32.0318739  39.5125000  54.4664243  32.5204599
  37.7035929  52.3441558  32.1965916  37.1085861  52.6246570  31.5012405
  37.4185626  52.8335459  32.9682657  33.9992958  57.3488147  17.1676019
  34.9452063  57.2194355  17.2364437  33.6207203  56.6102809  17.6445447
  42.3104116  55.2703138  31.1707098  41.7943165  54.4861594  30.9837027
  43.1944065  54.9421854  31.3353617  39.9714843  49.0144153  27.1302911
  39.7739664  48.7059241  28.0146243  40.5814548  49.7405792  27.2600840
  32.1835876  55.2738124  17.1030904  31.2767331  54.9771236  17.1793618
  32.4611857  54.9767942  16.2365190  33.7997941  49.8175013  23.2575145
  32.9898670  49.4722098  23.6330391  34.4882358  49.5082557  23.8462757
  35.7288490  48.8953060  24.8799442  36.2819528  49.3148513  25.5389465
  35.9658576  47.9688808  24.9222398  31.7521589  54.8840134  40.6602206
  31.6518316  55.8334491  40.5914297  31.5343131  54.5558373  39.7878276
  30.9534660  52.1325059  17.2442883  31.8153824  52.4579957  17.5038701
  31.1385004  51.3456555  16.7315949  39.1067297  51.0053585  24.3878106
  38.5265966  51.6638389  24.0056159  38.8403229  50.1830930  23.9765524
  37.5570863  50.4058643  26.5899426  38.0570641  50.5175177  25.7813745
  38.2006471  50.1019696  27.2300235  37.8892175  53.1653676  23.4434454
  37.0018030  53.4503326  23.2254649  38.3046164  53.0047439  22.5961731
  41.2406711  53.1900197  27.1588794  42.0167101  53.6796649  27.4313410
  40.5154845  53.6158251  27.6160663  43.6779269  53.9027816  28.2162734
  44.2723760  53.6623552  27.5056043  43.7505853  53.1834946  28.8436271
  37.8633198  58.6808212  23.6584745  37.8068400  59.1376763  22.8192377
  38.4161541  57.9198896  23.4807587  41.6738004  54.4697943  24.4834864
  41.4174939  54.0694579  25.3143072  41.0490872  55.1841737  24.3585003
  31.9064103  49.3721102  20.5322592  31.8942773  50.3162942  20.6890863
  32.7987525  49.1891247  20.2382053  35.7216223  45.9663878  24.7868529
  34.9548618  45.4122365  24.9325211  36.1326928  46.0385747  25.6482681
  27.7257984  52.2548674  38.8773710  28.5889445  51.8985479  39.0877035
  27.1523394  51.9162569  39.5649114  15.0525098   4.9036900  16.4081418
  15.6903508   4.7843647  15.7044758  14.9345941   5.8517744  16.4669370
  11.8614805   4.8564328  16.3442943  11.5233316   4.7405393  15.4563477
  12.7304573   4.4555493  16.3243949  12.3434588   6.0099180  22.3029148
  12.3323228   5.6151978  21.4309652  12.5055227   5.2765253  22.8962920
   9.0641849   8.7936292  21.2508332   8.7731715   9.6981923  21.1354998
   9.6998833   8.8352819  21.9652402   9.9898056   6.1713140  17.8409692
  10.5861628   5.9469163  17.1266655  10.0473027   5.4297886  18.4435140
  20.0074794   2.5663587  14.3867604  20.7399966   1.9962804  14.6205434
  19.2514150   2.1785188  14.8274110  14.0231734   8.4797707  18.2458126
  13.7232457   9.3822746  18.1373933  13.6782793   8.2129890  19.0979279
  17.4228878   0.9980247  15.9255563  16.5145755   0.9295656  15.6314324
  17.3716473   1.4752192  16.7537389   9.0052514  15.2442028  11.2129093
   8.9276543  16.1949853  11.2917574   8.4014157  14.8987900  11.8704020
  11.4969743   2.4169893  23.8690460  10.7203078   2.9763813  23.8593325
  12.1360307   2.9026676  24.3905330  19.2890524  -0.8003314  17.7033437
  18.6464904  -0.5070781  17.0573232  18.7845453  -0.9150394  18.5086634
   9.7516116   5.2255346  23.4308427  10.4930800   5.7640390  23.1543251
   9.0453101   5.8521635  23.5879979  15.2271455   7.3684487  22.0280589
  15.6354811   6.9266897  21.2835221  14.5048717   6.7937114  22.2814782
  11.5802525   2.3057094  19.4014146  12.4263721   2.7296507  19.5448795
  11.5201163   1.6490718  20.0952709  15.5500270   7.9285678  15.7832878
  14.9209132   8.0931392  15.0808946  15.1625932   8.3427287  16.5543842
  19.4289502   8.8640115  13.1377241  18.7440540   9.2439017  12.5874275
  19.5133351   9.4735442  13.8709189  14.7301971  -0.0338538  21.0595319
  14.4862903   0.7203523  20.5229595  15.0061901   0.3446810  21.8942566
  16.6840434   6.5100074  19.7372585  16.8957329   7.1531834  19.0606966
  16.6370182   5.6762391  19.2694515   7.9952313   7.2131567  15.9862726
   8.5653670   7.6418836  15.3480211   8.5860425   6.9314152  16.6846912
  17.7986261   9.3872030  17.9094942  18.6203705   8.9852217  17.6277624
  17.7948664   9.2840264  18.8611058  11.5642865   8.9356073  20.0655653
  11.6287297   9.3976480  20.9013825  10.8553789   8.3053438  20.1937963
  25.8892255   5.7310778  14.2579914  25.1355963   5.1618176  14.1023918
  26.0239796   5.6973443  15.2050549  12.9059359  11.2247747  24.0634975
  12.4623213  10.4384126  23.7455880  13.5676573  11.4126898  23.3978866
   7.6646480  12.7543549  18.5895654   8.2153905  12.6260612  17.8172648
   6.8257956  13.0538438  18.2390547  15.0040597  11.5050547  22.0916377
  14.9859072  12.3259428  21.5996646  15.9260517  11.3804622  22.3166518
  11.4613651   9.0194677  22.9339885  11.9941988   8.2582965  22.7039193
  10.9327732   8.7268328  23.6764039  17.8059210   6.3429689  15.5625743
  17.1482884   7.0328951  15.6505872  18.6099609   6.7326121  15.9059730
  16.6164669   4.6974062  13.6129685  17.1296550   5.3304054  14.1151395
  17.2665893   4.0975258  13.2473045  17.3826465   9.6780064  11.7408828
  16.9288792   8.8370974  11.7974018  16.7520432  10.3141462  12.0783608
  15.8259404  11.5156560  12.6758646  16.1182379  12.0761617  11.9571011
  16.3358025  11.8085121  13.4311805  10.7893029  12.2936911  13.7652099
  10.7469208  12.5197758  12.8360631  11.7055728  12.0600286  13.9137900
  14.2358663   2.7620979  20.6632728  14.5908051   2.9892452  21.5227194
  14.8830794   3.0939356  20.0409983  19.9925780   7.9515942  16.3793329
  20.4262286   7.8591231  17.2276383  20.7057360   7.9273442  15.7413345
  13.7253675  11.5518036  17.9126429  13.7790697  12.1208972  18.6804145
  12.8568456  11.7219921  17.5480466  20.8541329   7.9939642  18.9126214
  21.0477219   8.8985453  19.1585489  20.7541947   7.5347062  19.7464799
  15.9156438   8.1446385  24.4867095  15.7641944   7.9156937  23.5697178
  15.9061117   9.1016987  24.4998440  12.6841774   5.7178298  19.4713361
  13.6133834   5.8689458  19.2982328  12.2632804   5.8062319  18.6162008
  11.4830106   9.7428962  17.2411899  11.3441192   9.3747747  18.1137837
  10.6944702  10.2576602  17.0695857  12.0778258  14.8438059   8.5837435
  12.2530014  14.3726102   9.3983058  11.3911046  15.4703825   8.8118696
  13.0335321   9.1210565  14.6300737  12.6985154   9.0811335  15.5258386
  12.5339267   8.4555281  14.1571147   9.6361866   4.2398154  19.6436997
  10.3461484   3.5991347  19.6023616   9.5931174   4.4911049  20.5663178
  17.6248645  11.1765508  22.5643577  17.5661191  10.4924728  21.8974160
  18.0268163  11.9184498  22.1124203   6.6439343  17.9927422  15.3577295
   6.8835942  18.6245946  16.0356314   5.8008540  17.6415462  15.6442655
  17.6266052   9.1405092  20.7957556  16.7392831   8.8031014  20.9183955
  18.1964603   8.4088123  21.0326322  11.1567205  13.8006544  17.7618799
  11.0837377  14.6061516  18.2738104  10.7144598  13.9998510  16.9366821
  10.9456985  13.0378314  11.2721621  10.1624507  13.5799994  11.3659845
  11.6449730  13.5552294  11.6715862  22.1083392   4.5513309  15.5574118
  22.0973269   5.4338025  15.1868051  21.2400772   4.1984860  15.3628655
  13.6165889  13.6993378  19.9176958  14.3293861  14.3340843  19.8452860
  13.1255917  13.7957244  19.1016960   8.6677802  11.4487822  20.7382529
   9.3687262  12.0824305  20.8911923   8.1972917  11.7902553  19.9778168
  16.4679088   4.0032429  18.5635079  15.8150539   4.2508336  17.9087532
  16.8459468   3.1896567  18.2297557  13.4286262  14.0392122  12.6663250
  13.6108657  13.2213778  13.1291002  14.2519248  14.2559814  12.2288140
  13.7628428  12.9660307   9.9278298  14.2916194  12.4552762   9.3148460
  14.0256647  12.6502838  10.7923831  12.5166661   4.7452240  25.0501116
  11.8407298   4.6446369  25.7203492  13.3394295   4.5891454  25.5137114
   4.2645520  10.9824177  17.6713632   4.8498957  10.2367865  17.8041536
   4.0670359  11.2928133  18.5550295   7.1184176  14.0175424  12.6876074
   6.4494551  14.5021552  12.2040114   6.9797045  14.2644644  13.6019453
  11.2589444  16.0519168  19.2858732  11.8107752  16.2150789  20.0507818
  11.5995638  16.6423605  18.6138757  16.1100319  10.8780425  25.1407387
  16.6540222  11.4910383  24.6462342  15.5287163  11.4360003  25.6574400
  14.3957831  14.0001143  16.2722415  14.2708971  13.1990883  15.7633360
  15.0536923  14.4947336  15.7836384  16.4592740  11.8010163  17.9001965
  15.5123075  11.6815514  17.8280291  16.8075513  10.9132661  17.9828226
  13.4639173  11.5962879  14.1006317  13.3164136  10.6679587  14.2813887
  14.2892667  11.6182970  13.6163392  17.0673295  12.4191438  15.1871190
  17.9919842  12.2134299  15.0495641  16.8988598  12.1707839  16.0960531
  16.8568611  12.9377106  10.5433281  17.0305489  12.3723528   9.7907133
  17.3497502  13.7378000  10.3612771  22.7108002   5.7013528  12.1623581
  23.1539148   4.9520854  11.7642704  21.8334513   5.6923665  11.7797313
  19.7435207   9.7043575   9.1717510  20.2686531  10.0430848   8.4466830
  19.6557559   8.7690591   8.9880645  11.4055255  13.6177649  21.3007387
  11.7142382  13.3726796  22.1730086  12.2030738  13.8224288  20.8126257
  11.4275868  15.7715559  13.5312763  10.9880858  15.2791937  14.2245620
  12.1783985  15.2288526  13.2904838   8.8749740  11.3153568  15.6035065
   8.2529749  10.6524273  15.3037293   9.5454607  11.3414700  14.9208713
  19.4329113  10.3376479  24.4768708  18.6424657  10.3200618  23.9373207
  19.1962467  10.8764773  25.2317745  19.5526988   7.1868945  21.7901437
  19.6024993   7.0218953  22.7316959  19.4440911   6.3196205  21.3999317
  16.8430750   3.1699874  23.1060743  17.7440613   3.0306338  22.8144741
  16.9178725   3.3354328  24.0458921  21.0545185   9.6065887  22.0343458
  20.7629993   9.9695868  22.8706919  20.4417316   8.8932895  21.8556790
  22.2540867   7.1718767  14.5546028  23.0887758   7.6108571  14.7183589
  22.3899996   6.6957420  13.7354274  19.3032373   4.7298502  20.5023516
  19.7786495   4.9226148  19.6942367  18.3797938   4.7857687  20.2566900
  18.0034042   1.6064262  18.7351822  18.9551465   1.7062359  18.7564046
  17.8337492   0.8142530  19.2449906  16.0248421  -1.3080155  18.9211223
  15.4298354  -1.0275142  18.2257711  15.7398118  -0.8186254  19.6927964
  20.4822120   4.8270381  17.8494121  20.4498440   3.8886382  18.0353805
  21.0922743   4.9054418  17.1159946  20.6316608   1.6181425  17.8952405
  20.1155657   0.8339881  17.7082333  21.5156557   1.2900141  18.0598924
  26.2998670   5.8886388  16.9900158  27.0302058   5.6271676  17.5507861
  25.6905615   5.1515110  17.0302226  24.3813967   4.0294251  17.5874609
  23.6547130   3.8950216  16.9791101  23.9661254   4.3371079  18.3931327
  12.2044143   7.7484181  25.3521982  13.1247153   7.9262780  25.5462029
  12.1693726   6.8040226  25.2001682   5.2006216   5.6585215  17.9944764
   5.4192225   6.5902323  18.0132797   5.6131990   5.2993190  18.7799567
   9.9365351   4.6615560  26.2012574   9.4532433   5.4615920  26.4076463
  10.0226290   4.6723505  25.2480018   5.8638689   8.5520094  18.2381008
   6.8181942   8.5204037  18.1710939   5.6651212   8.0910718  19.0531234
   6.4538071   7.1221211  20.8051806   7.2730960   7.6165289  20.8286643
   6.7274878   6.2053179  20.7769373  21.9991762   0.2506103  14.9408041
  22.5936252   0.0101839  14.2301349  22.0718345  -0.4686766  15.5681577
   4.2188917  14.0939714  15.2551206   4.0843385  13.3340115  14.6889204
   3.8020980  14.8180614  14.7879995  24.3062834   3.5572304  13.7151462
  23.7462392   3.6265493  14.4883024  23.7006338   3.3813288  12.9950958
   7.3758043  14.9909031  15.4669648   7.2590427  15.9354463  15.3648339
   6.5550490  14.6882593  15.8555448  14.2326377   8.5240192  27.0036143
  15.1017537   8.6980844  26.6422778  13.7533129   9.3434609  26.8811873
   8.4012557  15.6437293  18.6825577   9.3039804  15.6760903  18.9992072
   8.1749927  14.7137744  18.6971913  10.1566159  14.3968279  15.3435655
   9.2061790  14.3970141  15.2300028  10.4598646  13.6501014  14.8271690
  25.8918853  20.2328818  16.4081418  26.5297263  20.1135565  15.7044758
  25.7739696  21.1809662  16.4669370  22.7008559  20.1856246  16.3442943
  22.3627071  20.0697311  15.4563477  23.5698327  19.7847411  16.3243949
  18.5595375  22.0391722  12.3339834  17.9960240  21.9481659  11.5656121
  18.4447770  21.2191627  12.8142326  16.1059807  23.5342914  15.1724054
  16.8981099  23.1933739  14.7570353  16.3456457  23.6437889  16.0926207
  24.1394934  25.7062690   7.6454298  23.4882913  26.2916770   7.2588312
  24.9339296  26.2368885   7.7049336  18.0650561  22.7951827   8.0441433
  18.8381437  22.2480814   7.9054309  18.4175960  23.6596077   8.2555894
  19.9035603  24.1228209  21.2508332  19.6125469  25.0273840  21.1354998
  20.5392588  24.1644737  21.9652402  20.8291810  21.5005058  17.8409692
  21.4255382  21.2761080  17.1266655  20.8866782  20.7589803  18.4435140
  20.4016839  18.9544493   5.6759883  20.6542359  18.4326015   4.9143346
  19.4641398  18.7910639   5.7786566  25.4460121  17.9580272  13.4834626
  26.2323211  17.5399695  13.1325043  25.7098826  18.8626364  13.6516274
  25.6170199  23.3953122   8.1823283  24.9816032  23.4687748   8.8944187
  25.2867605  23.9846721   7.5042362  30.8468548  17.8955505  14.3867604
  31.5793720  17.3254722  14.6205434  30.0907904  17.5077105  14.8274110
  20.1213127  20.8572599   7.8784258  20.0049385  20.1817503   8.5465342
  20.2315387  20.3704973   7.0616411  22.4644668  20.3182746  11.5830947
  22.1002875  19.7913367  12.2943868  23.3211784  19.9281215  11.4097432
  28.3693969  11.6077079  18.8462213  28.0377294  12.4772490  18.6223428
  27.7739582  11.2913363  19.5256243  22.1050155  15.3472646   6.5792295
  22.2724558  16.2152882   6.9462766  21.9147324  15.5099928   5.6553585
  24.8625488  23.8089625  18.2458126  24.5626211  24.7114664  18.1373933
  24.5176548  23.5421808  19.0979279  18.3137970  20.2603422  14.2794830
  17.3888466  20.1279636  14.4872522  18.5622383  21.0397641  14.7764773
  28.2622632  16.3272165  15.9255563  27.3539509  16.2587574  15.6314324
  28.2110228  16.8044110  16.7537389  22.0839376  17.8030304   7.5638962
  21.9639001  18.2487354   8.4024442  21.3891964  18.1515621   7.0052500
  15.6746781  19.9036695  15.1138619  15.8039162  20.1571174  16.0278031
  14.9944232  20.4964403  14.7943274  19.8446268  30.5733945  11.2129093
  19.7670298  31.5241770  11.2917574  19.2407912  30.2279818  11.8704020
  22.3363498  17.7461811  23.8690460  21.5596832  18.3055731  23.8593325
  22.9754061  18.2318594  24.3905330  30.1284279  14.5288604  17.7033437
  29.4858659  14.8221137  17.0573232  29.6239207  14.4141524  18.5086634
  27.7824442  18.2751777   8.3919296  28.6942298  18.5079163   8.2166994
  27.2734089  18.8588821   7.8294375  20.5909870  20.5547264  23.4308427
  21.3324555  21.0932308  23.1543251  19.8846856  21.1813553  23.5879979
  22.4196280  17.6349011  19.4014146  23.2657475  18.0588425  19.5448795
  22.3594918  16.9782636  20.0952709  26.3894025  23.2577595  15.7832878
  25.7602887  23.4223309  15.0808946  26.0019687  23.6719205  16.5543842
  30.2683256  24.1932033  13.1377241  29.5834295  24.5730934  12.5874275
  30.3527106  24.8027360  13.8709189  25.5695725  15.2953380  21.0595319
  25.3256657  16.0495440  20.5229595  25.8455656  15.6738727  21.8942566
  25.1260417  14.4509813  16.6409157  24.2644896  14.7491066  16.9325895
  25.1522852  14.6680212  15.7090190  21.9421986  22.9952003  13.0482963
  22.4060332  23.2739706  12.2587585  21.6778785  22.0935448  12.8656053
  18.8346067  22.5423485  15.9862726  19.4047425  22.9710753  15.3480211
  19.4254179  22.2606070  16.6846912  20.8790872  19.1175156   9.8572528
  21.5814916  19.5696199  10.3246454  20.5471501  18.4758975  10.4852421
  19.3271234  17.7086912  24.2323737  18.6969895  18.3903193  24.4659134
  19.2207322  17.5969994  23.2876876  14.6216206  17.3758708  15.1589662
  13.8315260  17.6316237  14.6829772  15.1127454  18.1907046  15.2641702
  28.6380016  24.7163947  17.9094942  29.4597460  24.3144135  17.6277624
  28.6342419  24.6132182  18.8611058  16.5730952  17.7403288  12.1173138
  15.7762115  17.8521982  12.6356634  16.3456544  18.0789940  11.2514029
  22.4036619  24.2647991  20.0655653  22.4681052  24.7268398  20.9013825
  21.6947543  23.6345356  20.1937963  12.9053909  17.6289199  17.5904652
  13.1561948  18.5136209  17.8562228  13.4413458  17.4493800  16.8179744
  36.7286009  21.0602696  14.2579914  35.9749717  20.4910094  14.1023918
  36.8633550  21.0265360  15.2050549  22.1184637  25.9316098   9.9334633
  21.9830312  26.7767634  10.3619481  22.6594450  26.1335376   9.1700567
  18.6051977  12.0107678  26.5948988  18.2118922  11.4573877  27.2696633
  19.4218117  12.3218257  26.9855506  15.5714034  23.4491536  10.5062558
  16.0838555  24.2434787  10.6568123  16.2236747  22.7517827  10.4396160
  17.3808919  26.5657293  12.5885311  17.5575548  27.4875257  12.4006295
  18.1765753  26.2515712  13.0179691  21.5219938  13.4265557  24.1869245
  22.2629651  14.0272710  24.1073707  21.7537861  12.6843195  23.6287288
  16.6661276  18.6121924  22.4647475  16.5514791  17.7107182  22.7654574
  15.8105793  18.8585621  22.1132291  18.5040235  28.0835466  18.5895654
  19.0547660  27.9552530  17.8172648  17.6651711  28.3830355  18.2390547
  22.3007406  24.3486594  22.9339885  22.8335742  23.5874882  22.7039193
  21.7721487  24.0560246  23.6764039  25.4677101   9.4546660  18.4633527
  25.1241370  10.3448302  18.3872637  25.8356063   9.2648318  17.6003112
  13.5362951  21.7780191  11.2822129  14.3738173  22.1877199  11.0655837
  13.7141219  20.8379633  11.2522323  25.4327383  19.4455271   6.9705962
  24.9174007  20.2159876   7.2094349  25.1604692  18.7720407   7.5939023
  23.0174494  14.2904972  12.0291200  22.1616091  13.9011822  11.8496839
  23.4301446  14.3696933  11.1690986  24.5473641  11.8251315  16.4282760
  24.0438437  11.7881450  15.6150565  24.8404248  12.7344058  16.4879417
  20.7916527  11.9090045  15.4348942  21.6569524  11.7132854  15.0754831
  20.8594036  11.6800397  16.3618298  30.4061658  22.1987626   8.9059135
  29.6291100  21.8598785   8.4614297  31.0853138  22.2040249   8.2314100
  25.2213687  17.3182363   8.7965743  24.9163822  17.6328513   9.6475886
  26.1744129  17.3963783   8.8393076  23.6660118  23.4772587  10.4458697
  23.1381480  22.7425346  10.1331934  23.1647621  24.2547263  10.1998665
  28.6452964  21.6721607  15.5625743  27.9876639  22.3620869  15.6505872
  29.4493364  22.0618039  15.9059730  18.3978846  14.1392253  12.8065308
  18.9722598  13.9167434  12.0738501  18.9849828  14.2080947  13.5593910
  27.4558423  20.0265980  13.6129685  27.9690305  20.6595972  14.1151395
  28.1059647  19.4267175  13.2473045  18.7248433  16.1696714   6.8261194
  17.8885745  16.5071401   7.1470468  18.5853203  16.0345694   5.8888331
  20.7001514  11.0133502  11.5340378  20.0465926  10.6982519  10.9096993
  20.6581988  10.3909242  12.2600201  21.8112719  21.2952797   3.4493670
  20.9039780  21.0642050   3.6484819  22.3083751  20.4990416   3.6367651
  24.7180797  30.0050304   6.3690356  24.0442496  30.3082001   6.9775314
  25.1046619  30.8079384   6.0195813  23.9339254  17.5015435  15.8588025
  23.0161815  17.7230382  15.7009714  24.3499398  17.5761746  14.9999733
  24.7174302  18.9006851  10.9890706  25.4646121  19.4128248  10.6797828
  24.9865891  18.5790904  11.8495099  22.9900952  21.3965392   7.9717660
  22.0812171  21.1124425   8.0690130  23.0196036  21.8164470   7.1120967
  28.2220219  25.0071981  11.7408828  27.7682547  24.1662891  11.7974018
  27.5914186  25.6433380  12.0783608  27.1653139  15.9363967  12.9709495
  26.4275896  15.4241354  13.3019738  27.4179913  15.4964349  12.1592772
  26.6653159  26.8448478  12.6758646  26.9576133  27.4053535  11.9571011
  27.1751779  27.1377039  13.4311805  27.2664766   8.7140219  13.5651264
  27.5723643   7.8537583  13.2777179  27.9917371   9.3057840  13.3650258
  13.5589122  19.1170906  11.9532862  13.3613522  18.5240267  11.2283929
  13.0035786  18.8123116  12.6708801  21.5385846  19.0094012  14.0727455
  21.5934456  18.0567849  13.9969932  20.7277048  19.1653451  14.5568754
  22.6877040  22.9374135   5.3105739  22.2496470  22.2209994   4.8511376
  23.4287481  23.1650250   4.7490830  19.4778206  17.6271072  11.8317834
  18.6646072  17.9265243  12.2383026  19.9737200  17.2326761  12.5492316
  21.6286784  27.6228829  13.7652099  21.5862963  27.8489675  12.8360631
  22.5449483  27.3892204  13.9137900  25.0752418  18.0912897  20.6632728
  25.4301805  18.3184370  21.5227194  25.7224549  18.4231273  20.0409983
  30.8050155  21.2131332  11.3682057  30.6668053  21.4032928  10.4403246
  30.4486373  21.9750715  11.8250108  18.9692281  15.1989428  17.4479069
  19.6091660  15.0578187  16.7502033  18.1369811  14.9123941  17.0717671
  30.8319534  23.2807860  16.3793329  31.2656041  23.1883149  17.2276383
  31.5451115  23.2565360  15.7413345  19.7452585  24.4991858  13.5614062
  20.5393183  24.0042178  13.3596637  19.0344277  23.9709721  13.1981767
  24.5647429  26.8809954  17.9126429  24.6184451  27.4500890  18.6804145
  23.6962210  27.0511839  17.5480466  16.0535348  18.6434940   9.6373814
  15.1232936  18.5819395   9.8543776  16.1492820  18.1210893   8.8410456
  15.9720897  15.1689753  12.2252056  16.2327714  16.0835086  12.1161216
  16.7938069  14.7014195  12.3748669  17.4445822  16.5827510  19.3950881
  18.1168876  16.3744872  18.7463529  16.6175609  16.3849596  18.9556113
  31.6935084  23.3231560  18.9126214  31.8870974  24.2277371  19.1585489
  31.5935702  22.8638979  19.7464799  23.3471394  13.2089451  21.4116541
  22.6999310  13.9079400  21.3181018  24.1172410  13.6425595  21.7792790
  23.5235529  21.0470216  19.4713361  24.4527589  21.1981375  19.2982328
  23.1026559  21.1354236  18.6162008  22.3223861  25.0720880  17.2411899
  22.1834946  24.7039664  18.1137837  21.5338457  25.5868520  17.0695857
  22.9172013  30.1729977   8.5837435  23.0923768  29.7018020   9.3983058
  22.2304801  30.7995743   8.8118696  23.8729076  24.4502483  14.6300737
  23.5378908  24.4103253  15.5258386  23.3733021  23.7847199  14.1571147
  17.8473320  19.8570113  20.1553318  17.7093118  19.1250352  20.7564857
  18.7578243  19.7679013  19.8737505  26.8088267  21.7958517   4.9037796
  26.1917438  21.0705345   4.8070849  26.3404756  22.5567877   4.5604870
  20.4755620  19.5690072  19.6436997  21.1855239  18.9283264  19.6023616
  20.4324929  19.8202967  20.5663178  19.1884554  16.5555290  21.4632637
  18.6521911  16.1046028  22.1154233  18.6001263  16.6901199  20.7203101
  17.4833098  33.3219339  15.3577295  17.7229696  33.9537863  16.0356314
  16.6402294  32.9707379  15.6442655  10.1188953  20.8021101  14.1200608
  10.8059993  20.4882831  13.5321623   9.9637082  21.7062466  13.8467859
  14.9223676  15.6911298  18.5485631  14.8381864  15.0836967  17.8136041
  14.1006382  16.1820316  18.5495128  21.9960960  29.1298462  17.7618799
  21.9231131  29.9353433  18.2738104  21.5538353  29.3290428  16.9366821
  21.7850739  28.3670232  11.2721621  21.0018261  28.9091912  11.3659845
  22.4843485  28.8844211  11.6715862  25.0947389  14.1764861  13.9155826
  25.5916089  13.4234824  13.5956897  24.3234371  14.2129178  13.3499036
  32.9477147  19.8805227  15.5574118  32.9367023  20.7629942  15.1868051
  32.0794526  19.5276778  15.3628655  26.1777170  22.9336548  11.4894250
  25.2433449  23.0538011  11.3198954  26.3553839  22.0309015  11.2254260
  21.6782358  16.3182244  13.6427511  21.3080146  15.7653285  14.3308417
  22.1741451  15.7140378  13.0902511  29.5649722  18.7753868  12.0244284
  30.0310174  19.6081859  11.9504587  30.0157222  18.3098849  12.7289542
  19.5071557  26.7779739  20.7382529  20.2081016  27.4116222  20.8911923
  19.0366672  27.1194471  19.9778168  27.6325953  25.1197689   9.0230436
  27.9085797  25.0054284   9.9324310  26.7630451  24.7215174   8.9842609
  27.5366384  11.1434455  16.0635185  26.6229464  11.3738682  16.2317392
  27.9659486  11.2272899  16.9149218  27.3072843  19.3324347  18.5635079
  26.6544293  19.5800254  17.9087532  27.6853223  18.5188485  18.2297557
  24.2680017  29.3684040  12.6663250  24.4502411  28.5505696  13.1291002
  25.0913003  29.5851732  12.2288140  24.6022182  28.2952225   9.9278298
  25.1309949  27.7844680   9.3148460  24.8650402  27.9794755  10.7923831
  15.1039275  26.3116094  17.6713632  15.6892712  25.5659782  17.8041536
  14.9064113  26.6220051  18.5550295  17.9577930  29.3467342  12.6876074
  17.2888305  29.8313469  12.2040114  17.8190800  29.5936562  13.6019453
   9.6956930  18.8821695  16.3918075   9.7341029  18.3485285  17.1855193
   9.1897222  18.3556900  15.7729052  17.0747692  13.7286235  19.8880617
  17.1389018  14.5901066  19.4758015  17.0114812  13.1160237  19.1552976
  16.5499964  15.8009368  23.5353651  17.1772003  15.4186445  24.1491176
  15.6927883  15.5823569  23.9009344  13.3265507  17.6085797   9.4672006
  13.6218948  16.6996475   9.4139060  12.4253543  17.5873536   9.1453008
  25.2351586  29.3293061  16.2722415  25.1102725  28.5282801  15.7633360
  25.8930677  29.8239254  15.7836384  16.8559754  15.6841793  15.4499555
  16.1346340  16.2977761  15.3107028  17.6453010  16.2199558  15.3716201
  27.2986494  27.1302081  17.9001965  26.3516830  27.0107432  17.8280291
  27.6469267  26.2424579  17.9828226  19.6586068  13.0196220  21.7240206
  20.1820470  13.2658516  22.4866516  19.4398401  13.8516255  21.3043344
  15.0553349  15.2899894   9.5911331  14.7266055  14.4097273   9.4086437
  15.4092719  15.2347563  10.4787721  24.3032928  26.9254797  14.1006317
  24.1557890  25.9971504  14.2813887  25.1286421  26.9474888  13.6163392
  18.1695172  15.5772864   9.9586809  18.5091244  16.1058785   9.2365417
  18.6167292  15.9153270  10.7345376  27.9067049  27.7483356  15.1871190
  28.8313597  27.5426217  15.0495641  27.7382353  27.4999757  16.0960531
  20.8638613  13.9609915  19.4089877  20.5235433  13.1617728  19.8110557
  20.1577619  14.2611626  18.8366710  21.5155085  11.0459227  17.8617200
  22.3381154  10.5719705  17.7396090  21.7593148  11.8249711  18.3615886
  20.1563319  14.0747486   8.1580102  20.8771682  14.4528738   7.6543819
  19.5328623  14.7936363   8.2615080  24.2994442  14.7792635   9.0938434
  24.5158056  15.6617273   8.7927262  23.8188509  14.3878848   8.3644076
  19.0393663  17.7378348  15.6709179  18.8938244  18.0518651  16.5633460
  18.5618867  18.3563248  15.1180077  20.8990046  14.7280896  15.7190068
  20.8851615  13.8321989  15.3822366  21.6162474  14.7351560  16.3528354
  22.7516177  15.1618236  17.7643196  22.4933955  16.0835307  17.7627526
  22.2201217  14.7648671  18.4543660  27.6962366  28.2669023  10.5433281
  27.8699243  27.7015446   9.7907133  28.1891257  29.0669918  10.3612771
  13.5139325  20.2783692  18.6096840  12.9692794  21.0543500  18.7417114
  14.3918675  20.6254497  18.4515961  20.3026942  13.6095276  10.9877638
  20.4242853  12.6811922  11.1868526  20.0128985  13.6233962  10.0755954
  23.1718133  11.2950187  14.1244358  23.1939829  11.3589520  13.1696338
  23.5886192  10.4554695  14.3184864  33.5501757  21.0305446  12.1623581
  33.9932903  20.2812771  11.7642704  32.6728267  21.0215583  11.7797313
  28.6837538  27.5835788   7.6430179  29.3788443  28.2042480   7.8617494
  29.0260688  26.7331139   7.9182557  14.3005347  19.4053589  21.5026997
  13.5587083  19.5536224  22.0891627  13.9798092  19.6661854  20.6393746
  30.5828961  25.0335493   9.1717510  31.1080285  25.3722766   8.4466830
  30.4951314  24.0982508   8.9880645  22.2669622  31.1007476  13.5312763
  21.8274612  30.6083855  14.2245620  23.0177739  30.5580444  13.2904838
  14.7461961  27.2919017  13.5337391  15.5719981  26.9922789  13.1536035
  14.3956013  26.5226640  13.9827180  19.7143494  26.6445486  15.6035065
  19.0923503  25.9816191  15.3037293  20.3848361  26.6706617  14.9208713
  12.9470566  25.2105344  14.4926325  12.1102474  24.7827518  14.3110326
  12.9194211  25.4037787  15.4297116  19.7868022  15.1227274  25.1967571
  19.8356177  15.9989396  24.8145341  20.3290536  14.5804667  24.6239214
  30.3920742  22.5160863  21.7901437  30.4418747  22.3510871  22.7316959
  30.2834666  21.6488122  21.3999317  19.2757001  25.1949409   9.0793525
  19.4245121  25.8784873   8.4260198  20.0823445  25.1754499   9.5942981
  22.0167310  15.8758646  21.9513930  21.1470620  16.1692212  21.6796518
  22.2526790  16.4599091  22.6721193  31.8938939  24.9357805  22.0343458
  31.6023748  25.2987785  22.8706919  31.2811071  24.2224813  21.8556790
  33.0934622  22.5010684  14.5546028  33.9281513  22.9400489  14.7183589
  33.2293750  22.0249338  13.7354274  30.1426127  20.0590419  20.5023516
  30.6180249  20.2518066  19.6942367  29.2191693  20.1149605  20.2566900
  17.0309634  21.2214586  10.0854594  16.7855676  20.3176916  10.2834805
  17.2005549  21.2231737   9.1434072  24.7206344  12.0938263  19.4679350
  25.2388288  12.8299290  19.1425839  24.3661477  12.4002256  20.3026109
  16.3005282  16.9542944   7.5840756  15.6074527  17.0287299   6.9280792
  16.0557034  16.1903288   8.1062273  24.9718938   8.5138545  14.9880247
  25.2520692   7.8461734  15.6140673  25.7569545   8.7067641  14.4754910
  22.7752407  27.6897539   6.5505273  22.2026374  28.3087726   6.0975745
  23.3485200  28.2396901   7.0845195  28.8427796  16.9356179  18.7351822
  29.7945219  17.0354277  18.7564046  28.6731247  16.1434448  19.2449906
  26.8642176  14.0211763  18.9211223  26.2692108  14.3016775  18.2257711
  26.5791873  14.5105664  19.6927964  25.9949666  27.9734689   7.6813855
  26.9280340  27.9080251   7.8846731  25.9072879  28.8090956   7.2228388
  28.6237683  27.2900560   4.6417803  28.5451315  26.9560423   5.5353561
  29.4447350  27.7822328   4.6409275  31.3215874  20.1562299  17.8494121
  31.2892194  19.2178300  18.0353805  31.9316498  20.2346336  17.1159946
  23.1599205  19.0258352   3.8921325  24.1058310  18.8964560   3.9609743
  22.7813450  18.2873014   4.3690754  31.4710363  16.9473343  17.8952405
  30.9549411  16.1631799  17.7082333  32.3550311  16.6192059  18.0598924
  29.1321090  10.6914358  13.8548217  28.9345911  10.3829446  14.7391549
  29.7420795  11.4175997  13.9846147  37.1392424  21.2178306  16.9900158
  37.8695813  20.9563594  17.5507861  36.5299370  20.4807028  17.0302226
  35.2207721  19.3586169  17.5874609  34.4940885  19.2242133  16.9791101
  34.8055008  19.6662997  18.3931327  12.2620063  18.2714692  14.2775257
  11.9422847  17.4180000  13.9849631  11.7153491  18.4863270  15.0333224
  16.0399970  20.9877133  17.9944764  16.2585980  21.9194241  18.0132797
  16.4525744  20.6285107  18.7799567  22.9604188  11.4945218   9.9820452
  22.1504916  11.1492303  10.3575698  23.6488605  11.1852762  10.5708063
  24.8894736  10.5723265  11.6044749  25.4425775  10.9918718  12.2634772
  25.1264823   9.6459013  11.6467705  20.9127836  16.5610339  27.3847512
  20.8124562  17.5104696  27.3159604  20.6949378  16.2328578  26.5123583
  12.1308323  21.8917603  16.2468379  11.4371794  21.4771556  15.7338333
  12.8781314  21.9338140  15.6501798  28.2673543  12.6823790  11.1123413
  27.6872212  13.3408594  10.7301465  28.0009476  11.8601135  10.7010830
  26.7177110  12.0828848  13.3144733  27.2176888  12.1945382  12.5059052
  27.3612718  11.7789901  13.9545542  20.7759106  19.9907477  26.2012574
  20.2926187  20.7907838  26.4076463  20.8620045  20.0015422  25.2480018
  14.0445065  21.8235857  14.1234393  14.0215753  21.9223544  13.1716277
  14.3545702  22.6701008  14.4451560  16.7032443  23.8812012  18.2381008
  17.6575697  23.8495954  18.1710939  16.5044967  23.4202636  19.0531234
  17.2931825  22.4513128  20.8051806  18.1124714  22.9457207  20.8286643
  17.5668633  21.5345096  20.7769373  27.0498421  14.8423881  10.1679761
  26.1624276  15.1273531   9.9499956  27.4652410  14.6817644   9.3207038
  30.4012958  14.8670401  13.8834100  31.1773348  15.3566854  14.1558717
  29.6761092  15.2928456  14.3405970  32.8385516  15.5798021  14.9408041
  33.4330007  15.3393757  14.2301349  32.9112100  14.8605151  15.5681577
  15.0582672  29.4231632  15.2551206  14.9237140  28.6632033  14.6889204
  14.6414734  30.1472532  14.7879995  26.1941635  24.6068555   4.2627781
  26.8977485  24.8118558   4.8785437  25.4704284  25.1745317   4.5276865
  27.0239445  20.3578416  10.3830051  26.9674647  20.8146968   9.5437684
  27.5767788  19.5969101  10.2052894  30.8344251  16.1468148  11.2080171
  30.5781185  15.7464784  12.0388378  30.2097119  16.8611942  11.0830310
  35.1456589  18.8864222  13.7151462  34.5856147  18.9557411  14.4883024
  34.5400092  18.7105206  12.9950958  18.2151798  30.3200949  15.4669648
  18.0984182  31.2646381  15.3648339  17.3944244  30.0174510  15.8555448
  28.1028332  25.0451084   6.3126241  28.9373936  24.6132283   6.1303716
  27.9412675  24.8733098   7.2403136  27.7574224  21.5483198   7.6782580
  27.7023028  21.3827469   6.7371025  27.1320280  22.2559231   7.8344770
  12.5466739  16.7851262  21.5044003  13.1925603  16.2750216  21.9931228
  12.3383891  17.5219944  22.0787428  21.0670350  11.0491307   7.2567899
  21.0549020  11.9933147   7.4136170  21.9593772  10.8661452   6.9627360
  19.2406312  30.9729211  18.6825577  20.1433559  31.0052821  18.9992072
  19.0143682  30.0429662  18.6971913  20.9959914  29.7260197  15.3435655
  20.0455545  29.7262059  15.2300028  21.2992400  28.9792932  14.8271690
  24.8822469   7.6434083  11.5113836  24.1154865   7.0892570  11.6570518
  25.2933174   7.7155952  12.3727987  16.8864230  13.9318879  25.6019017
  17.7495692  13.5755684  25.8122341  16.3129641  13.5932774  26.2894421
  36.7312607  35.5620735  16.4081418  37.3691017  35.4427483  15.7044758
  36.6133450  36.5101579  16.4669370  33.5402314  35.5148164  16.3442943
  33.2020825  35.3989228  15.4563477  34.4092082  35.1139329  16.3243949
  29.3989129  37.3683640  12.3339834  28.8353994  37.2773577  11.5656121
  29.2841524  36.5483544  12.8142326  34.0222097  36.6683015  22.3029148
  34.0110737  36.2735814  21.4309652  34.1842736  35.9349088  22.8962920
  26.9453561  38.8634832  15.1724054  27.7374853  38.5225656  14.7570353
  27.1850211  38.9729807  16.0926207  34.9788688  41.0354608   7.6454298
  34.3276668  41.6208688   7.2588312  35.7733051  41.5660803   7.7049336
  28.9044315  38.1243745   8.0441433  29.6775191  37.5772732   7.9054309
  29.2569714  38.9887994   8.2555894  30.7429358  39.4520127  21.2508332
  30.4519224  40.3565758  21.1354998  31.3786342  39.4936655  21.9652402
  31.6685565  36.8296976  17.8409692  32.2649137  36.6052998  17.1266655
  31.7260536  36.0881721  18.4435140  31.2410593  34.2836411   5.6759883
  31.4936114  33.7617932   4.9143346  30.3035152  34.1202556   5.7786566
  36.2853876  33.2872189  13.4834626  37.0716965  32.8691613  13.1325043
  36.5492580  34.1918282  13.6516274  36.4563953  38.7245040   8.1823283
  35.8209786  38.7979666   8.8944187  36.1261360  39.3138638   7.5042362
  41.6862303  33.2247423  14.3867604  42.4187475  32.6546639  14.6205434
  40.9301659  32.8369023  14.8274110  30.9606882  36.1864517   7.8784258
  30.8443140  35.5109420   8.5465342  31.0709142  35.6996891   7.0616411
  33.3038423  35.6474664  11.5830947  32.9396630  35.1205285  12.2943868
  34.1605539  35.2573133  11.4097432  39.2087723  26.9368997  18.8462213
  38.8771048  27.8064408  18.6223428  38.6133337  26.6205281  19.5256243
  32.9443910  30.6764564   6.5792295  33.1118312  31.5444800   6.9462766
  32.7541079  30.8391845   5.6553585  35.7019243  39.1381543  18.2458126
  35.4019966  40.0406581  18.1373933  35.3570302  38.8713726  19.0979279
  29.1531724  35.5895339  14.2794830  28.2282221  35.4571554  14.4872522
  29.4016138  36.3689559  14.7764773  39.1016387  31.6564083  15.9255563
  38.1933264  31.5879491  15.6314324  39.0503982  32.1336028  16.7537389
  32.9233131  33.1322221   7.5638962  32.8032756  33.5779272   8.4024442
  32.2285719  33.4807539   7.0052500  26.5140535  35.2328613  15.1138619
  26.6432917  35.4863092  16.0278031  25.8337987  35.8256321  14.7943274
  30.6840023  45.9025863  11.2129093  30.6064052  46.8533688  11.2917574
  30.0801666  45.5571735  11.8704020  40.9678033  29.8580521  17.7033437
  40.3252413  30.1513054  17.0573232  40.4632962  29.7433442  18.5086634
  38.6218197  33.6043694   8.3919296  39.5336053  33.8371081   8.2166994
  38.1127844  34.1880739   7.8294375  36.9058964  38.0268322  22.0280589
  37.3142320  37.5850733  21.2835221  36.1836226  37.4520950  22.2814782
  33.2590034  32.9640929  19.4014146  34.1051230  33.3880343  19.5448795
  33.1988672  32.3074553  20.0952709  37.2287779  38.5869513  15.7832878
  36.5996641  38.7515227  15.0808946  36.8413441  39.0011122  16.5543842
  41.1077011  39.5223951  13.1377241  40.4228049  39.9022852  12.5874275
  41.1920860  40.1319277  13.8709189  36.4089480  30.6245297  21.0595319
  36.1650412  31.3787358  20.5229595  36.6849410  31.0030645  21.8942566
  38.3627943  37.1683910  19.7372585  38.5744838  37.8115670  19.0606966
  38.3157691  36.3346226  19.2694515  35.9654171  29.7801730  16.6409157
  35.1038651  30.0782984  16.9325895  35.9916606  29.9972129  15.7090190
  32.7815741  38.3243921  13.0482963  33.2454086  38.6031624  12.2587585
  32.5172539  37.4227366  12.8656053  29.6739822  37.8715402  15.9862726
  30.2441179  38.3002671  15.3480211  30.2647934  37.5897987  16.6846912
  31.7184627  34.4467073   9.8572528  32.4208670  34.8988117  10.3246454
  31.3865255  33.8050892  10.4852421  25.4609961  32.7050626  15.1589662
  24.6709015  32.9608155  14.6829772  25.9521208  33.5198964  15.2641702
  39.4773770  40.0455865  17.9094942  40.2991214  39.6436052  17.6277624
  39.4736173  39.9424099  18.8611058  27.4124706  33.0695205  12.1173138
  26.6155870  33.1813899  12.6356634  27.1850298  33.4081857  11.2514029
  33.2430374  39.5939908  20.0655653  33.3074806  40.0560316  20.9013825
  32.5341298  38.9637273  20.1937963  23.7447664  32.9581116  17.5904652
  23.9955702  33.8428126  17.8562228  24.2807212  32.7785718  16.8179744
  47.5679764  36.3894614  14.2579914  46.8143472  35.8202012  14.1023918
  47.7027305  36.3557278  15.2050549  32.9578392  41.2608016   9.9334633
  32.8224066  42.1059552  10.3619481  33.4988204  41.4627294   9.1700567
  26.4107789  38.7783454  10.5062558  26.9232310  39.5726704  10.6568123
  27.0630502  38.0809744  10.4396160  28.2202674  41.8949210  12.5885311
  28.3969302  42.8167175  12.4006295  29.0159507  41.5807629  13.0179691
  34.5846868  41.8831582  24.0634975  34.1410722  41.0967961  23.7455880
  35.2464082  42.0710733  23.3978866  29.3433989  43.4127384  18.5895654
  29.8941414  43.2844447  17.8172648  28.5045465  43.7122273  18.2390547
  36.6828106  42.1634382  22.0916377  36.6646581  42.9843263  21.5996646
  37.6048026  42.0388458  22.3166518  33.1401160  39.6778512  22.9339885
  33.6729497  38.9166800  22.7039193  32.6115241  39.3852164  23.6764039
  36.3070855  24.7838578  18.4633527  35.9635125  25.6740220  18.3872637
  36.6749818  24.5940235  17.6003112  24.3756706  37.1072108  11.2822129
  25.2131928  37.5169117  11.0655837  24.5534973  36.1671550  11.2522323
  36.2721138  34.7747189   6.9705962  35.7567761  35.5451794   7.2094349
  35.9998446  34.1012325   7.5939023  33.8568249  29.6196890  12.0291200
  33.0009845  29.2303740  11.8496839  34.2695201  29.6988851  11.1690986
  35.3867396  27.1543233  16.4282760  34.8832191  27.1173368  15.6150565
  35.6798002  28.0635976  16.4879417  31.6310281  27.2381963  15.4348942
  32.4963278  27.0424771  15.0754831  31.6987790  27.0092314  16.3618298
  41.2455412  37.5279544   8.9059135  40.4684855  37.1890703   8.4614297
  41.9246893  37.5332167   8.2314100  36.0607441  32.6474281   8.7965743
  35.7557577  32.9620430   9.6475886  37.0137883  32.7255701   8.8393076
  34.5053873  38.8064504  10.4458697  33.9775234  38.0717264  10.1331934
  34.0041376  39.5839181  10.1998665  39.4846719  37.0013525  15.5625743
  38.8270393  37.6912786  15.6505872  40.2887118  37.3909957  15.9059730
  29.2372600  29.4684171  12.8065308  29.8116352  29.2459352  12.0738501
  29.8243583  29.5372865  13.5593910  38.2952178  35.3557898  13.6129685
  38.8084059  35.9887889  14.1151395  38.9453402  34.7559093  13.2473045
  29.5642188  31.4988632   6.8261194  28.7279500  31.8363318   7.1470468
  29.4246957  31.3637611   5.8888331  31.5395268  26.3425420  11.5340378
  30.8859681  26.0274437  10.9096993  31.4975742  25.7201160  12.2600201
  32.6506473  36.6244715   3.4493670  31.7433535  36.3933968   3.6484819
  33.1477505  35.8282334   3.6367651  34.7733009  32.8307353  15.8588025
  33.8555570  33.0522300  15.7009714  35.1893152  32.9053664  14.9999733
  35.5568056  34.2298769  10.9890706  36.3039875  34.7420166  10.6797828
  35.8259646  33.9082821  11.8495099  33.8294706  36.7257309   7.9717660
  32.9205926  36.4416342   8.0690130  33.8589790  37.1456388   7.1120967
  39.0613974  40.3363899  11.7408828  38.6076301  39.4954809  11.7974018
  38.4307941  40.9725297  12.0783608  38.0046893  31.2655885  12.9709495
  37.2669650  30.7533271  13.3019738  38.2573667  30.8256267  12.1592772
  37.5046913  42.1740396  12.6758646  37.7969888  42.7345453  11.9571011
  38.0145534  42.4668957  13.4311805  38.1058521  24.0432137  13.5651264
  38.4117398  23.1829500  13.2777179  38.8311126  24.6349757  13.3650258
  24.3982877  34.4462824  11.9532862  24.2007277  33.8532184  11.2283929
  23.8429541  34.1415034  12.6708801  32.3779601  34.3385930  14.0727455
  32.4328210  33.3859766  13.9969932  31.5670803  34.4945369  14.5568754
  33.5270794  38.2666053   5.3105739  33.0890224  37.5501912   4.8511376
  34.2681235  38.4942168   4.7490830  30.3171960  32.9562990  11.8317834
  29.5039826  33.2557160  12.2383026  30.8130955  32.5618679  12.5492316
  32.4680538  42.9520747  13.7652099  32.4256717  43.1781593  12.8360631
  33.3843237  42.7184121  13.9137900  35.9146172  33.4204814  20.6632728
  36.2695560  33.6476287  21.5227194  36.5618303  33.7523191  20.0409983
  41.6443909  36.5423250  11.3682057  41.5061808  36.7324846  10.4403246
  41.2880128  37.3042633  11.8250108  29.8086035  30.5281345  17.4479069
  30.4485415  30.3870104  16.7502033  28.9763566  30.2415859  17.0717671
  41.6713289  38.6099777  16.3793329  42.1049795  38.5175066  17.2276383
  42.3844869  38.5857278  15.7413345  30.5846339  39.8283776  13.5614062
  31.3786938  39.3334096  13.3596637  29.8738032  39.3001639  13.1981767
  35.4041184  42.2101871  17.9126429  35.4578206  42.7792808  18.6804145
  34.5355965  42.3803756  17.5480466  26.8929103  33.9726858   9.6373814
  25.9626691  33.9111313   9.8543776  26.9886575  33.4502810   8.8410456
  26.8114652  30.4981670  12.2252056  27.0721469  31.4127004  12.1161216
  27.6331824  30.0306113  12.3748669  28.2839577  31.9119428  19.3950881
  28.9562630  31.7036790  18.7463529  27.4569363  31.7141513  18.9556113
  42.5328838  38.6523478  18.9126214  42.7264728  39.5569288  19.1585489
  42.4329456  38.1930897  19.7464799  34.1865149  28.5381368  21.4116541
  33.5393064  29.2371318  21.3181018  34.9566164  28.9717512  21.7792790
  37.5943947  38.8030221  24.4867095  37.4429453  38.5740772  23.5697178
  37.5848626  39.7600822  24.4998440  34.3629283  36.3762133  19.4713361
  35.2921343  36.5273293  19.2982328  33.9420313  36.4646154  18.6162008
  33.1617615  40.4012798  17.2411899  33.0228701  40.0331582  18.1137837
  32.3732211  40.9160437  17.0695857  33.7565767  45.5021894   8.5837435
  33.9317523  45.0309937   9.3983058  33.0698555  46.1287660   8.8118696
  34.7122830  39.7794400  14.6300737  34.3772663  39.7395170  15.5258386
  34.2126776  39.1139116  14.1571147  28.6867074  35.1862030  20.1553318
  28.5486872  34.4542269  20.7564857  29.5971998  35.0970931  19.8737505
  37.6482022  37.1250435   4.9037796  37.0311193  36.3997263   4.8070849
  37.1798510  37.8859795   4.5604870  31.3149375  34.8981990  19.6436997
  32.0248993  34.2575182  19.6023616  31.2718683  35.1494885  20.5663178
  39.3036154  41.8349343  22.5643577  39.2448700  41.1508563  21.8974160
  39.7055672  42.5768333  22.1124203  28.3226852  48.6511257  15.3577295
  28.5623451  49.2829781  16.0356314  27.4796049  48.2999297  15.6442655
  29.4380568  31.3435859   4.0259100  28.5610034  31.2224660   3.6621347
  29.9138321  30.5521937   3.7737989  39.3053561  39.7988927  20.7957556
  38.4180340  39.4614849  20.9183955  39.8752112  39.0671958  21.0326322
  20.9582708  36.1313019  14.1200608  21.6453748  35.8174749  13.5321623
  20.8030837  37.0354383  13.8467859  25.7617430  31.0203215  18.5485631
  25.6775619  30.4128885  17.8136041  24.9400137  31.5112234  18.5495128
  32.8354714  44.4590379  17.7618799  32.7624886  45.2645351  18.2738104
  32.3932107  44.6582345  16.9366821  32.6244494  43.6962149  11.2721621
  31.8412016  44.2383830  11.3659845  33.3237239  44.2136129  11.6715862
  35.9341144  29.5056779  13.9155826  36.4309844  28.7526741  13.5956897
  35.1628125  29.5421096  13.3499036  43.7870901  35.2097144  15.5574118
  43.7760778  36.0921860  15.1868051  42.9188281  34.8568695  15.3628655
  35.2953398  44.3577213  19.9176958  36.0081370  44.9924678  19.8452860
  34.8043426  44.4541079  19.1016960  37.0170925  38.2628466  11.4894250
  36.0827203  38.3829929  11.3198954  37.1947593  37.3600933  11.2254260
  32.5176113  31.6474162  13.6427511  32.1473900  31.0945202  14.3308417
  33.0135205  31.0432295  13.0902511  40.4043476  34.1045785  12.0244284
  40.8703928  34.9373777  11.9504587  40.8550977  33.6390767  12.7289542
  30.3465311  42.1071657  20.7382529  31.0474771  42.7408140  20.8911923
  29.8760426  42.4486388  19.9778168  38.4719707  40.4489607   9.0230436
  38.7479551  40.3346201   9.9324310  37.6024206  40.0507092   8.9842609
  38.3760139  26.4726372  16.0635185  37.4623219  26.7030599  16.2317392
  38.8053240  26.5564816  16.9149218  38.1466597  34.6616264  18.5635079
  37.4938047  34.9092172  17.9087532  38.5246977  33.8480403  18.2297557
  35.1073771  44.6975958  12.6663250  35.2896166  43.8797613  13.1291002
  35.9306757  44.9143650  12.2288140  35.4415937  43.6244143   9.9278298
  35.9703703  43.1136597   9.3148460  35.7044156  43.3086673  10.7923831
  34.1954170  35.4036075  25.0501116  33.5194807  35.3030205  25.7203492
  35.0181804  35.2475289  25.5137114  25.9433029  41.6408012  17.6713632
  26.5286466  40.8951700  17.8041536  25.7457868  41.9511969  18.5550295
  28.7971685  44.6759259  12.6876074  28.1282060  45.1605387  12.2040114
  28.6584554  44.9228480  13.6019453  20.5350684  34.2113612  16.3918075
  20.5734784  33.6777203  17.1855193  20.0290977  33.6848818  15.7729052
  32.9376953  46.7103003  19.2858732  33.4895261  46.8734624  20.0507818
  33.2783147  47.3007441  18.6138757  27.9141446  29.0578153  19.8880617
  27.9782773  29.9192984  19.4758015  27.8508567  28.4452154  19.1552976
  37.7887827  41.5364260  25.1407387  38.3327731  42.1494219  24.6462342
  37.2074672  42.0943839  25.6574400  24.1659262  32.9377714   9.4672006
  24.4612703  32.0288393   9.4139060  23.2647297  32.9165454   9.1453008
  36.0745340  44.6584978  16.2722415  35.9496480  43.8574718  15.7633360
  36.7324432  45.1531172  15.7836384  27.6953509  31.0133711  15.4499555
  26.9740094  31.6269679  15.3107028  28.4846764  31.5491476  15.3716201
  38.1380249  42.4593998  17.9001965  37.1910584  42.3399350  17.8280291
  38.4863022  41.5716497  17.9828226  25.8947103  30.6191812   9.5911331
  25.5659809  29.7389191   9.4086437  26.2486474  30.5639481  10.4787721
  35.1426682  42.2546715  14.1006317  34.9951645  41.3263422  14.2813887
  35.9680176  42.2766805  13.6163392  29.0088926  30.9064782   9.9586809
  29.3484999  31.4350703   9.2365417  29.4561047  31.2445188  10.7345376
  38.7460804  43.0775273  15.1871190  39.6707351  42.8718135  15.0495641
  38.5776107  42.8291675  16.0960531  31.7032367  29.2901833  19.4089877
  31.3629188  28.4909646  19.8110557  30.9971374  29.5903543  18.8366710
  32.3548839  26.3751145  17.8617200  33.1774908  25.9011623  17.7396090
  32.5986903  27.1541629  18.3615886  30.9957074  29.4039403   8.1580102
  31.7165436  29.7820656   7.6543819  30.3722378  30.1228280   8.2615080
  35.1388196  30.1084552   9.0938434  35.3551811  30.9909190   8.7927262
  34.6582264  29.7170766   8.3644076  29.8787418  33.0670266  15.6709179
  29.7331999  33.3810569  16.5633460  29.4012621  33.6855166  15.1180077
  31.7383801  30.0572814  15.7190068  31.7245369  29.1613907  15.3822366
  32.4556229  30.0643477  16.3528354  33.5909931  30.4910154  17.7643196
  33.3327709  31.4127224  17.7627526  33.0594972  30.0940588  18.4543660
  38.5356120  43.5960941  10.5433281  38.7092998  43.0307363   9.7907133
  39.0285011  44.3961836  10.3612771  24.3533080  35.6075610  18.6096840
  23.8086548  36.3835418  18.7417114  25.2312430  35.9546414  18.4515961
  31.1420697  28.9387194  10.9877638  31.2636608  28.0103840  11.1868526
  30.8522739  28.9525880  10.0755954  34.0111887  26.6242104  14.1244358
  34.0333584  26.6881437  13.1696338  34.4279946  25.7846613  14.3184864
  44.3895511  36.3597364  12.1623581  44.8326657  35.6104689  11.7642704
  43.5122022  36.3507500  11.7797313  41.4222716  40.3627411   9.1717510
  41.9474040  40.7014684   8.4466830  41.3345068  39.4274426   8.9880645
  33.0842764  44.2761484  21.3007387  33.3929891  44.0310631  22.1730086
  33.8818247  44.4808123  20.8126257  33.1063377  46.4299394  13.5312763
  32.6668367  45.9375773  14.2245620  33.8571493  45.8872362  13.2904838
  25.5855716  42.6210935  13.5337391  26.4113735  42.3214707  13.1536035
  25.2349768  41.8518557  13.9827180  30.5537249  41.9737403  15.6035065
  29.9317258  41.3108108  15.3037293  31.2242116  41.9998535  14.9208713
  23.7864321  40.5397261  14.4926325  22.9496229  40.1119436  14.3110326
  23.7587966  40.7329705  15.4297116  41.1116622  40.9960314  24.4768708
  40.3212166  40.9784453  23.9373207  40.8749976  41.5348608  25.2317745
  41.2314497  37.8452781  21.7901437  41.2812502  37.6802788  22.7316959
  41.1228420  36.9780040  21.3999317  30.1150756  40.5241327   9.0793525
  30.2638876  41.2076791   8.4260198  30.9217199  40.5046417   9.5942981
  38.5218259  33.8283709  23.1060743  39.4228122  33.6890174  22.8144741
  38.5966234  33.9938164  24.0458921  42.7332694  40.2649722  22.0343458
  42.4417502  40.6279703  22.8706919  42.1204825  39.5516731  21.8556790
  43.9328376  37.8302602  14.5546028  44.7675267  38.2692406  14.7183589
  44.0687505  37.3541255  13.7354274  40.9819882  35.3882337  20.5023516
  41.4574004  35.5809983  19.6942367  40.0585447  35.4441523  20.2566900
  27.8703389  36.5506504  10.0854594  27.6249431  35.6468834  10.2834805
  28.0399303  36.5523655   9.1434072  35.5600098  27.4230181  19.4679350
  36.0782042  28.1591207  19.1425839  35.2055231  27.7294174  20.3026109
  27.1399036  32.2834862   7.5840756  26.4468281  32.3579217   6.9280792
  26.8950788  31.5195205   8.1062273  35.8112693  23.8430463  14.9880247
  36.0914446  23.1753652  15.6140673  36.5963300  24.0359559  14.4754910
  33.6146161  43.0189457   6.5505273  33.0420128  43.6379644   6.0975745
  34.1878955  43.5688819   7.0845195  39.6821551  32.2648097  18.7351822
  40.6338974  32.3646195  18.7564046  39.5125001  31.4726366  19.2449906
  37.7035930  29.3503680  18.9211223  37.1085863  29.6308693  18.2257711
  37.4185627  29.8397581  19.6927964  36.8343421  43.3026607   7.6813855
  37.7674094  43.2372169   7.8846731  36.7466634  44.1382874   7.2228388
  42.1609629  35.4854217  17.8494121  42.1285949  34.5470217  18.0353805
  42.7710252  35.5638253  17.1159946  33.9992960  34.3550270   3.8921325
  34.9452064  34.2256478   3.9609743  33.6207205  33.6164932   4.3690754
  42.3104117  32.2765260  17.8952405  41.7943166  31.4923717  17.7082333
  43.1944066  31.9483977  18.0598924  39.9714844  26.0206276  13.8548217
  39.7739665  25.7121364  14.7391549  40.5814550  26.7467915  13.9846147
  47.9786179  36.5470224  16.9900158  48.7089567  36.2855512  17.5507861
  47.3693124  35.8098946  17.0302226  46.0601476  34.6878086  17.5874609
  45.3334639  34.5534051  16.9791101  45.6448763  34.9954915  18.3931327
  33.8831652  38.4068016  25.3521982  34.8034662  38.5846615  25.5462029
  33.8481235  37.4624061  25.2001682  32.1835877  32.2800246   3.8276211
  31.2767332  31.9833359   3.9038924  32.4611858  31.9830064   2.9610497
  23.1013817  33.6006610  14.2775257  22.7816601  32.7471918  13.9849631
  22.5547245  33.8155188  15.0333224  26.8793725  36.3169051  17.9944764
  27.0979734  37.2486158  18.0132797  27.2919499  35.9577025  18.7799567
  33.7997942  26.8237136   9.9820452  32.9898671  26.4784221  10.3575698
  34.4882359  26.5144680  10.5708063  35.7288491  25.9015183  11.6044749
  36.2819529  26.3210636  12.2634772  35.9658577  24.9750931  11.6467705
  30.9534661  29.1387181   3.9688190  31.8153825  29.4642080   4.2284007
  31.1385006  28.3518677   3.4561256  22.9702077  37.2209521  16.2468379
  22.2765549  36.8063474  15.7338333  23.7175068  37.2630058  15.6501798
  39.1067298  28.0115708  11.1123413  38.5265967  28.6700512  10.7301465
  38.8403231  27.1893052  10.7010830  37.5570864  27.4120766  13.3144733
  38.0570643  27.5237300  12.5059052  38.2006472  27.1081818  13.9545542
  24.8838820  37.1527775  14.1234393  24.8609508  37.2515462  13.1716277
  25.1939456  37.9992926  14.4451560  27.5426198  39.2103930  18.2381008
  28.4969451  39.1787872  18.1710939  27.3438721  38.7494554  19.0531234
  28.1325580  37.7805046  20.8051806  28.9518469  38.2749125  20.8286643
  28.4062387  36.8637014  20.7769373  37.8892176  30.1715798  10.1679761
  37.0018031  30.4565449   9.9499956  38.3046165  30.0109562   9.3207038
  41.2406712  30.1962319  13.8834100  42.0167102  30.6858772  14.1558717
  40.5154846  30.6220373  14.3405970  43.6779271  30.9089938  14.9408041
  44.2723761  30.6685674  14.2301349  43.7505854  30.1897069  15.5681577
  25.8976426  44.7523549  15.2551206  25.7630894  43.9923950  14.6889204
  25.4808489  45.4764449  14.7879995  37.8633200  35.6870334  10.3830051
  37.8068401  36.1438886   9.5437684  38.4161542  34.9261019  10.2052894
  41.6738006  31.4760066  11.2080171  41.4174940  31.0756702  12.0388378
  41.0490874  32.1903860  11.0830310  45.9850343  34.2156139  13.7151462
  45.4249901  34.2849329  14.4883024  45.3793847  34.0397124  12.9950958
  29.0545552  45.6492866  15.4669648  28.9377936  46.5938299  15.3648339
  28.2337998  45.3466428  15.8555448  38.9422087  40.3743002   6.3126241
  39.7767691  39.9424201   6.1303716  38.7806430  40.2025016   7.2403136
  38.5967979  36.8775115   7.6782580  38.5416783  36.7119387   6.7371025
  37.9714034  37.5851148   7.8344770  35.9113886  39.1824027  27.0036143
  36.7805046  39.3564680  26.6422778  35.4320638  40.0018444  26.8811873
  31.9064104  26.3783224   7.2567899  31.8942774  27.3225064   7.4136170
  32.7987526  26.1953370   6.9627360  30.0800066  46.3021128  18.6825577
  30.9827313  46.3344739  18.9992072  29.8537436  45.3721579  18.6971913
  31.8353668  45.0552115  15.3435655  30.8849299  45.0553976  15.2300028
  32.1386155  44.3084849  14.8271690  35.7216224  22.9726001  11.5113836
  34.9548620  22.4184488  11.6570518  36.1326929  23.0447870  12.3727987
  47.5706362  50.8912653  16.4081418  48.2084772  50.7719401  15.7044758
  47.4527205  51.8393497  16.4669370  44.3796068  50.8440081  16.3442943
  44.0414580  50.7281146  15.4563477  45.2485836  50.4431246  16.3243949
  44.8615851  51.9974933  22.3029148  44.8504492  51.6027731  21.4309652
  45.0236491  51.2641006  22.8962920  37.7847316  54.1926749  15.1724054
  38.5768608  53.8517574  14.7570353  38.0243966  54.3021724  16.0926207
  41.5823112  54.7812045  21.2508332  41.2912978  55.6857676  21.1354998
  42.2180097  54.8228572  21.9652402  42.5079319  52.1588893  17.8409692
  43.1042891  51.9344916  17.1266655  42.5654291  51.4173639  18.4435140
  50.0481478  42.2660914  18.8462213  49.7164803  43.1356325  18.6223428
  49.4527091  41.9497198  19.5256243  39.9925479  50.9187257  14.2794830
  39.0675975  50.7863471  14.4872522  40.2409892  51.6981476  14.7764773
  49.9410141  46.9856001  15.9255563  49.0327018  46.9171409  15.6314324
  49.8897737  47.4627945  16.7537389  37.3534290  50.5620531  15.1138619
  37.4826671  50.8155010  16.0278031  36.6731741  51.1548239  14.7943274
  44.0151007  48.4045646  23.8690460  43.2384341  48.9639566  23.8593325
  44.6541570  48.8902429  24.3905330  51.8071788  45.1872439  17.7033437
  51.1646168  45.4804972  17.0573232  51.3026716  45.0725359  18.5086634
  42.2697379  51.2131099  23.4308427  43.0112064  51.7516143  23.1543251
  41.5634365  51.8397388  23.5879979  47.7452719  53.3560240  22.0280589
  48.1536075  52.9142650  21.2835221  47.0229980  52.7812867  22.2814782
  44.0983789  48.2932847  19.4014146  44.9444984  48.7172260  19.5448795
  44.0382427  47.6366471  20.0952709  47.2483234  45.9537215  21.0595319
  47.0044166  46.7079276  20.5229595  47.5243165  46.3322563  21.8942566
  46.8047926  45.1093648  16.6409157  45.9432405  45.4074902  16.9325895
  46.8310361  45.3264047  15.7090190  40.5133576  53.2007320  15.9862726
  41.0834934  53.6294589  15.3480211  41.1041688  52.9189905  16.6846912
  41.0058743  48.3670748  24.2323737  40.3757404  49.0487028  24.4659134
  40.8994831  48.2553829  23.2876876  36.3003715  48.0342544  15.1589662
  35.5102769  48.2900072  14.6829772  36.7914963  48.8490882  15.2641702
  38.2518461  48.3987123  12.1173138  37.4549624  48.5105817  12.6356634
  38.0244053  48.7373775  11.2514029  44.0824128  54.9231826  20.0655653
  44.1468561  55.3852233  20.9013825  43.3735052  54.2929191  20.1937963
  34.5841418  48.2873034  17.5904652  34.8349457  49.1720044  17.8562228
  35.1200967  48.1077636  16.8179744  40.2839486  42.6691513  26.5948988
  39.8906431  42.1157712  27.2696633  41.1005626  42.9802092  26.9855506
  43.2007447  44.0849393  24.1869245  43.9417160  44.6856546  24.1073707
  43.4325370  43.3427030  23.6287288  38.3448785  49.2705760  22.4647475
  38.2302300  48.3691017  22.7654574  37.4893302  49.5169457  22.1132291
  43.9794915  55.0070430  22.9339885  44.5123251  54.2458718  22.7039193
  43.4508996  54.7144081  23.6764039  47.1464610  40.1130496  18.4633527
  46.8028879  41.0032137  18.3872637  47.5143572  39.9232153  17.6003112
  44.6962003  44.9488807  12.0291200  43.8403600  44.5595658  11.8496839
  45.1088955  45.0280768  11.1690986  46.2261150  42.4835151  16.4282760
  45.7225946  42.4465286  15.6150565  46.5191757  43.3927893  16.4879417
  42.4704036  42.5673880  15.4348942  43.3357033  42.3716689  15.0754831
  42.5381545  42.3384232  16.3618298  40.0766355  44.7976088  12.8065308
  40.6510107  44.5751270  12.0738501  40.6637337  44.8664783  13.5593910
  42.3789023  41.6717337  11.5340378  41.7253435  41.3566354  10.9096993
  42.3369497  41.0493078  12.2600201  45.6126763  48.1599271  15.8588025
  44.6949324  48.3814218  15.7009714  46.0286907  48.2345581  14.9999733
  48.9452275  39.3724055  13.5651264  49.2511152  38.5121418  13.2777179
  49.6704880  39.9641675  13.3650258  35.2376631  49.7754741  11.9532862
  35.0401031  49.1824102  11.2283929  34.6823295  49.4706951  12.6708801
  43.2173355  49.6677848  14.0727455  43.2721965  48.7151684  13.9969932
  42.4064557  49.8237287  14.5568754  41.1565715  48.2854907  11.8317834
  40.3433580  48.5849078  12.2383026  41.6524709  47.8910596  12.5492316
  46.7539927  48.7496732  20.6632728  47.1089314  48.9768205  21.5227194
  47.4012058  49.0815109  20.0409983  40.6479790  45.8573263  17.4479069
  41.2879169  45.7162022  16.7502033  39.8157320  45.5707776  17.0717671
  37.6508406  45.8273588  12.2252056  37.9115223  46.7418921  12.1161216
  38.4725578  45.3598031  12.3748669  39.1233331  47.2411345  19.3950881
  39.7956385  47.0328707  18.7463529  38.2963118  47.0433431  18.9556113
  45.0258903  43.8673286  21.4116541  44.3786819  44.5663236  21.3181018
  45.7959919  44.3009430  21.7792790  45.2023038  51.7054051  19.4713361
  46.1315098  51.8565211  19.2982328  44.7814068  51.7938072  18.6162008
  44.0011370  55.7304715  17.2411899  43.8622455  55.3623500  18.1137837
  43.2125966  56.2452355  17.0695857  39.5260829  50.5153948  20.1553318
  39.3880627  49.7834187  20.7564857  40.4365752  50.4262848  19.8737505
  42.1543129  50.2273907  19.6436997  42.8642748  49.5867100  19.6023616
  42.1112438  50.4786802  20.5663178  40.8672063  47.2139125  21.4632637
  40.3309420  46.7629864  22.1154233  40.2788772  47.3485034  20.7203101
  31.7976462  51.4604936  14.1200608  32.4847502  51.1466667  13.5321623
  31.6424591  52.3646301  13.8467859  36.6011185  46.3495133  18.5485631
  36.5169373  45.7420803  17.8136041  35.7793891  46.8404151  18.5495128
  46.7734898  44.8348697  13.9155826  47.2703598  44.0818659  13.5956897
  46.0021880  44.8713013  13.3499036  43.3569867  46.9766080  13.6427511
  42.9867655  46.4237120  14.3308417  43.8528960  46.3724213  13.0902511
  49.2153893  41.8018290  16.0635185  48.3016973  42.0322517  16.2317392
  49.6446995  41.8856734  16.9149218  48.9860352  49.9908182  18.5635079
  48.3331802  50.2384089  17.9087532  49.3640732  49.1772320  18.2297557
  45.0347925  50.7327993  25.0501116  44.3588562  50.6322122  25.7203492
  45.8575559  50.5767207  25.5137114  36.7826784  56.9699930  17.6713632
  37.3680221  56.2243618  17.8041536  36.5851622  57.2803886  18.5550295
  31.3744439  49.5405530  16.3918075  31.4128538  49.0069121  17.1855193
  30.8684731  49.0140735  15.7729052  38.7535201  44.3870070  19.8880617
  38.8176527  45.2484901  19.4758015  38.6902321  43.7744072  19.1552976
  38.2287473  46.4593203  23.5353651  38.8559512  46.0770280  24.1491176
  37.3715392  46.2407405  23.9009344  35.0053016  48.2669632   9.4672006
  35.3006457  47.3580310   9.4139060  34.1041052  48.2457371   9.1453008
  38.5347263  46.3425629  15.4499555  37.8133849  46.9561596  15.3107028
  39.3240519  46.8783393  15.3716201  41.3373577  43.6780055  21.7240206
  41.8607978  43.9242352  22.4866516  41.1185910  44.5100090  21.3043344
  36.7340858  45.9483730   9.5911331  36.4053564  45.0681109   9.4086437
  37.0880228  45.8931398  10.4787721  42.5426122  44.6193750  19.4089877
  42.2022942  43.8201563  19.8110557  41.8365128  44.9195461  18.8366710
  43.1942594  41.7043063  17.8617200  44.0168663  41.2303541  17.7396090
  43.4380657  42.4833546  18.3615886  40.7181172  48.3962183  15.6709179
  40.5725753  48.7102486  16.5633460  40.2406376  49.0147084  15.1180077
  42.5777555  45.3864731  15.7190068  42.5639124  44.4905825  15.3822366
  43.2949983  45.3935395  16.3528354  44.4303686  45.8202071  17.7643196
  44.1721464  46.7419142  17.7627526  43.8988726  45.4232506  18.4543660
  35.1926834  50.9367528  18.6096840  34.6480303  51.7127336  18.7417114
  36.0706184  51.2838332  18.4515961  41.9814451  44.2679112  10.9877638
  42.1030362  43.3395758  11.1868526  41.6916493  44.2817797  10.0755954
  44.8505642  41.9534022  14.1244358  44.8727338  42.0173355  13.1696338
  45.2673701  41.1138531  14.3184864  35.9792856  50.0637424  21.5026997
  35.2374592  50.2120059  22.0891627  35.6585601  50.3245690  20.6393746
  34.6258075  55.8689179  14.4926325  33.7889983  55.4411353  14.3110326
  34.5981720  56.0621622  15.4297116  41.4655531  45.7811109  25.1967571
  41.5143686  46.6573232  24.8145341  42.0078045  45.2388502  24.6239214
  49.3612014  49.1575627  23.1060743  50.2621877  49.0182091  22.8144741
  49.4359988  49.3230081  24.0458921  43.6954819  46.5342481  21.9513930
  42.8258129  46.8276047  21.6796518  43.9314299  47.1182926  22.6721193
  46.3993853  42.7522098  19.4679350  46.9175797  43.4883125  19.1425839
  46.0448986  43.0586092  20.3026109  46.6506447  39.1722381  14.9880247
  46.9308201  38.5045570  15.6140673  47.4357054  39.3651476  14.4754910
  50.5215305  47.5940015  18.7351822  51.4732728  47.6938112  18.7564046
  50.3518756  46.8018283  19.2449906  48.5429685  44.6795598  18.9211223
  47.9479617  44.9600611  18.2257711  48.2579382  45.1689499  19.6927964
  53.1497872  47.6057178  17.8952405  52.6336920  46.8215635  17.7082333
  54.0337820  47.2775894  18.0598924  50.8108599  41.3498193  13.8548217
  50.6133420  41.0413282  14.7391549  51.4208304  42.0759832  13.9846147
  44.7225407  53.7359934  25.3521982  45.6428416  53.9138533  25.5462029
  44.6874990  52.7915979  25.2001682  33.9407572  48.9298527  14.2775257
  33.6210356  48.0763835  13.9849631  33.3941000  49.1447105  15.0333224
  37.7187479  51.6460968  17.9944764  37.9373489  52.5778076  18.0132797
  38.1313253  51.2868943  18.7799567  44.6391697  42.1529054   9.9820452
  43.8292425  41.8076138  10.3575698  45.3276114  41.8436597  10.5708063
  46.5682245  41.2307100  11.6044749  47.1213284  41.6502554  12.2634772
  46.8052332  40.3042848  11.6467705  42.5915344  47.2194174  27.3847512
  42.4912071  48.1688531  27.3159604  42.3736887  46.8912413  26.5123583
  33.8095832  52.5501439  16.2468379  33.1159303  52.1355391  15.7338333
  34.5568823  52.5921975  15.6501798  48.3964619  42.7412683  13.3144733
  48.8964397  42.8529218  12.5059052  49.0400227  42.4373736  13.9545542
  42.4546615  50.6491313  26.2012574  41.9713696  51.4491673  26.4076463
  42.5407554  50.6599258  25.2480018  35.7232574  52.4819692  14.1234393
  35.7003262  52.5807380  13.1716277  36.0333211  53.3284843  14.4451560
  38.3819952  54.5395848  18.2381008  39.3363206  54.5079790  18.1710939
  38.1832476  54.0786471  19.0531234  38.9719334  53.1096964  20.8051806
  39.7912223  53.6041042  20.8286643  39.2456142  52.1928932  20.7769373
  34.2254248  47.4435097  21.5044003  34.8713112  46.9334051  21.9931228
  34.0171400  48.1803779  22.0787428  46.5609978  38.3017919  11.5113836
  45.7942374  37.7476405  11.6570518  46.9720683  38.3739787  12.3727987
  38.5651739  44.5902714  25.6019017  39.4283201  44.2339519  25.8122341
  37.9917150  44.2516609  26.2894421  26.9494074   3.2134465  11.8652693
  27.4933978   3.8264424  11.3707648  26.3680919   3.7714044  12.3819706
  30.2722869   2.6730519  11.2014015  29.4818412   2.6554658  10.6618514
  30.0356223   3.2118813  11.9563051  31.8938940   1.9419927   8.7588765
  31.6023749   2.3049908   9.5952226  31.2811072   1.2286936   8.5802097
  25.0720133   0.8594232  13.7281450  25.9411293   1.0334884  13.3668085
  24.5926884   1.6788649  13.6057179  36.7312609  12.5682858   3.1326724
  37.3691019  12.4489605   2.4290065  36.6133452  13.5163702   3.1914677
  33.5402315  12.5210286   3.0688249  33.2020826  12.4051351   2.1808784
  34.4092083  12.1201451   3.0489255  34.0222098  13.6745138   9.0274455
  34.0110739  13.2797936   8.1554958  34.1842737  12.9411211   9.6208226
  30.7429359  16.4582250   7.9753639  30.4519225  17.3627881   7.8600305
  31.3786343  16.4998777   8.6897708  31.6685566  13.8359098   4.5654998
  32.2649138  13.6115121   3.8511961  31.7260537  13.0943844   5.1680446
  35.7019244  16.1443665   4.9703432  35.4019967  17.0468704   4.8619240
  35.3570304  15.8775848   5.8224585  30.6840024  22.9087986  -2.0625600
  30.6064054  23.8595811  -1.9837119  30.0801668  22.5633858  -1.4050674
  33.1757254  10.0815851  10.5935767  32.3990588  10.6409771  10.5838632
  33.8147817  10.5672634  11.1150637  31.4303626  12.8901304  10.1553734
  32.1718310  13.4286348   9.8788558  30.7240611  13.5167593  10.3125286
  36.9058966  15.0330445   8.7525895  37.3142322  14.5912855   8.0080528
  36.1836227  14.4583072   9.0060088  33.2590036   9.9703052   6.1259452
  34.1051231  10.3942465   6.2694101  33.1988673   9.3136676   6.8198016
  37.2287780  15.5931635   2.5078184  36.5996643  15.7577350   1.8054252
  36.8413442  16.0073245   3.2789148  36.4089481   7.6307420   7.7840626
  36.1650413   8.3849480   7.2474902  36.6849412   8.0092768   8.6187873
  38.3627944  14.1746032   6.4617892  38.5744839  14.8177792   5.7852273
  38.3157692  13.3408349   5.9939822  29.6739823  14.8777525   2.7108033
  30.2441180  15.3064793   2.0725517  30.2647935  14.5960110   3.4092218
  30.1664990  10.0440953  10.9569044  29.5363650  10.7257233  11.1904441
  30.0601078   9.9324034  10.0122182  39.4773772  17.0517988   4.6340249
  40.2991215  16.6498175   4.3522931  39.4736175  16.9486222   5.5856365
  33.2430375  16.6002031   6.7900959  33.3074808  17.0622438   7.6259131
  32.5341299  15.9699396   6.9183269  29.4445732   4.3461718  13.3194295
  29.0512678   3.7927917  13.9941939  30.2611873   4.6572297  13.7100813
  32.3613693   5.7619597  10.9114552  33.1023407   6.3626751  10.8319014
  32.5931616   5.0197235  10.3532594  27.5055031  10.9475965   9.1892781
  27.3908547  10.0461222   9.4899880  26.6499549  11.1939662   8.8377598
  34.5846869  18.8893705  10.7880282  34.1410723  18.1030084  10.4701186
  35.2464083  19.0772856  10.1224173  29.3433990  20.4189507   5.3140960
  29.8941416  20.2906570   4.5417954  28.5045466  20.7184396   4.9635853
  36.6828107  19.1696505   8.8161683  36.6646583  19.9905386   8.3241952
  37.6048027  19.0450580   9.0411824  33.1401161  16.6840634   9.6585192
  33.6729498  15.9228923   9.4284500  32.6115243  16.3914286  10.4009346
  39.4846720  14.0075647   2.2871050  38.8270395  14.6974909   2.3751178
  40.2887119  14.3972079   2.6305036  39.0613975  17.3426022  -1.5345866
  38.6076302  16.5016931  -1.4780675  38.4307942  17.9787420  -1.1971086
  37.5046914  19.1802518  -0.5996048  37.7969889  19.7407575  -1.3183682
  38.0145535  19.4731079   0.1557111  32.4680540  19.9582869   0.4897406
  32.4256718  20.1843716  -0.4394062  33.3843238  19.7246244   0.6383207
  35.9146173  10.4266937   7.3878035  36.2695561  10.6538410   8.2472501
  36.5618305  10.7585314   6.7655290  41.6713290  15.6161900   3.1038635
  42.1049797  15.5237189   3.9521689  42.3844871  15.5919400   2.4658651
  35.4041185  19.2163994   4.6371736  35.4578207  19.7854930   5.4049452
  34.5355966  19.3865879   4.2725773  42.5328840  15.6585600   5.6371521
  42.7264730  16.5631411   5.8830796  42.4329458  15.1993020   6.4710106
  34.1865150   5.5443491   8.1361848  33.5393065   6.2433441   8.0426324
  34.9566166   5.9779635   8.5038096  37.5943948  15.8092343  11.2112401
  37.4429455  15.5802895  10.2942485  37.5848628  16.7662945  11.2243746
  34.3629285  13.3824256   6.1958668  35.2921345  13.5335416   6.0227635
  33.9420315  13.4708277   5.3407314  33.1617616  17.4074920   3.9657205
  33.0228702  17.0393705   4.8383144  32.3732213  17.9222560   3.7941163
  33.7565768  22.5084017  -4.6917258  33.9317524  22.0372060  -3.8771635
  33.0698556  23.1349783  -4.4635997  34.7122832  16.7856523   1.3546043
  34.3772664  16.7457293   2.2503693  34.2126777  16.1201239   0.8816453
  28.6867075  12.1924153   6.8798624  28.5486873  11.4604392   7.4810163
  29.5971999  12.1033053   6.5982812  31.3149376  11.9044112   6.3682304
  32.0248995  11.2637305   6.3268922  31.2718684  12.1557007   7.2908485
  39.3036155  18.8411466   9.2888883  39.2448701  18.1570686   8.6219466
  39.7055673  19.5830456   8.8369509  30.0278310   8.8909330   8.1877943
  29.4915667   8.4400069   8.8399540  29.4395019   9.0255239   7.4448408
  28.3226854  25.6573380   2.0822602  28.5623452  26.2891904   2.7601621
  27.4796050  25.3061420   2.3687961  39.3053562  16.8051050   7.5202863
  38.4180341  16.4676971   7.6429262  39.8752113  16.0734081   7.7571628
  32.8354716  21.4652502   4.4864106  32.7624887  22.2707474   4.9983411
  32.3932109  21.6644468   3.6612127  32.6244495  20.7024272  -2.0033072
  31.8412017  21.2445952  -1.9094848  33.3237240  21.2198252  -1.6038831
  35.2953399  21.3639336   6.6422265  36.0081371  21.9986801   6.5698166
  34.8043428  21.4603202   5.8262267  30.3465313  19.1133780   7.4627836
  31.0474772  19.7470262   7.6157230  29.8760428  19.4548511   6.7023475
  38.1466599  11.6678387   5.2880386  37.4938049  11.9154294   4.6332839
  38.5246978  10.8542525   4.9542863  35.1073772  21.7038080  -0.6091444
  35.2896167  20.8859736  -0.1463691  35.9306758  21.9205772  -1.0466554
  35.4415938  20.6306265  -3.3476395  35.9703704  20.1198720  -3.9606233
  35.7044157  20.3148795  -2.4830862  34.1954172  12.4098198  11.7746423
  33.5194809  12.3092327  12.4448798  35.0181805  12.2537412  12.2382420
  25.9433031  18.6470135   4.3958938  26.5286467  17.9013822   4.5286842
  25.7457869  18.9574091   5.2795602  28.7971686  21.6821382  -0.5878619
  28.1282061  22.1667510  -1.0714579  28.6584556  21.9290602   0.3264759
  32.9376954  23.7165125   6.0104039  33.4895262  23.8796747   6.7753124
  33.2783148  24.3069563   5.3384064  27.3893720   8.1363408  10.2598958
  28.0165759   7.7540485  10.8736482  26.5321639   7.9177610  10.6254650
  37.7887829  18.5426383  11.8652693  38.3327733  19.1556341  11.3707648
  37.2074674  19.1005961  12.3819706  36.0745342  21.6647101   2.9967721
  35.9496481  20.8636841   2.4878667  36.7324433  22.1593294   2.5081691
  38.1380250  19.4656121   4.6247271  37.1910586  19.3461472   4.5525598
  38.4863023  18.5778619   4.7073533  30.4979823   5.3550260   8.4485513
  31.0214225   5.6012557   9.2111822  30.2792157   6.1870295   8.0288650
  35.1426683  19.2608837   0.8251623  34.9951646  18.3325545   1.0059193
  35.9680177  19.2828928   0.3408699  38.7460805  20.0837396   1.9116496
  39.6707353  19.8780257   1.7740947  38.5776109  19.8353797   2.8205838
  33.5909933   7.4972276   4.4888502  33.3327710   8.4189347   4.4872833
  33.0594973   7.1002711   5.1788966  38.5356121  20.6023063  -2.7321412
  38.7092999  20.0369486  -3.4847560  39.0285013  21.4023958  -2.9141922
  24.3533081  12.6137733   5.3342146  23.8086549  13.3897541   5.4662421
  25.2312431  12.9608537   5.1761268  25.1399103  11.7407629   8.2272303
  24.3980839  11.8890264   8.8136934  24.8191847  12.0015894   7.3639053
  33.0842766  21.2823607   8.0252693  33.3929892  21.0372754   8.8975393
  33.8818248  21.4870246   7.5371564  33.1063378  23.4361517   0.2558070
  32.6668368  22.9437895   0.9490927  33.8571495  22.8934484   0.0150145
  30.5537250  18.9799526   2.3280372  29.9317259  18.3170231   2.0282599
  31.2242117  19.0060658   1.6454019  30.6261777   7.4581314  11.9212878
  30.6749933   8.3343437  11.5390647  31.1684292   6.9158707  11.3484521
  41.1116623  18.0022437  11.2014015  40.3212167  17.9846576  10.6618514
  40.8749978  18.5410731  11.9563051  41.2314498  14.8514903   8.5146743
  41.2812503  14.6864911   9.4562266  41.1228422  13.9842162   8.1244624
  38.5218261  10.8345831   9.8306050  39.4228123  10.6952296   9.5390048
  38.5966235  11.0000286  10.7704227  32.8561066   8.2112686   8.6759236
  31.9864375   8.5046252   8.4041825  33.0920546   8.7953131   9.3966500
  42.7332695  17.2711845   8.7588765  42.4417503  17.6341826   9.5952226
  42.1204826  16.5578853   8.5802097  40.9819883  12.3944460   7.2268823
  41.4574005  12.5872106   6.4187674  40.0585449  12.4503645   6.9812206
  35.5600100   4.4292303   6.1924657  36.0782044   5.1653330   5.8671145
  35.2055232   4.7356296   7.0271416  39.6821552   9.2710220   5.4597128
  40.6338975   9.3708317   5.4809352  39.5125003   8.4788488   5.9695213
  37.7035932   6.3565803   5.6456529  37.1085864   6.6370816   4.9503018
  37.4185628   6.8459704   6.4173270  42.1609630  12.4916339   4.5739428
  42.1285950  11.5532340   4.7599112  42.7710254  12.5700376   3.8405253
  33.8831653  15.4130138  12.0767289  34.8034663  15.5908737  12.2707336
  33.8481236  14.4686184  11.9246988  26.8793726  13.3231173   4.7190070
  27.0979736  14.2548281   4.7378104  27.2919500  12.9639148   5.5044874
  31.7521591   8.8964379  14.1092819  31.6518318   9.8458736  14.0404910
  31.5343133   8.5682618  13.2368889  31.6152861  12.3261518  12.9257881
  31.1319943  13.1261878  13.1321770  31.7013800  12.3369463  11.9725325
  27.5426199  16.2166052   4.9626315  28.4969452  16.1849995   4.8956246
  27.3438722  15.7556676   5.7776540  28.1325581  14.7867168   7.5297112
  28.9518470  15.2811247   7.5531949  28.4062389  13.8699137   7.5014680
  25.8976428  21.7585672   1.9796512  25.7630896  20.9986073   1.4134510
  25.4808490  22.4826572   1.5125301  29.0545553  22.6554989   2.1914955
  28.9377938  23.6000421   2.0893645  28.2338000  22.3528550   2.5800754
  23.3860495   9.1205302   8.2289309  24.0319359   8.6104256   8.7176534
  23.1777646   9.8573984   8.8032735  35.9113887  16.1886150  13.7281450
  36.7805047  16.3626802  13.3668085  35.4320639  17.0080567  13.6057179
  30.0800068  23.3083251   5.4070883  30.9827314  23.3406861   5.7237378
  29.8537438  22.3783702   5.4217219  31.8353670  22.0614237   2.0680962
  30.8849301  22.0616099   1.9545334  32.1386156  21.3146972   1.5516997
  27.7257986   6.2672919  12.3264323  28.5889448   5.9109724  12.5367648
  27.1523397   5.9286814  13.0139728  47.5706363  27.8974776   3.1326724
  48.2084773  27.7781523   2.4290065  47.4527206  28.8455620   3.1914677
  44.3796069  27.8502204   3.0688249  44.0414581  27.7343269   2.1808784
  45.2485838  27.4493369   3.0489255  44.8615852  29.0037056   9.0274455
  44.8504493  28.6089854   8.1554958  45.0236492  28.2703128   9.6208226
  37.7847317  31.1988872   1.8969361  38.5768609  30.8579697   1.4815660
  38.0243967  31.3083847   2.8171514  41.5823114  31.7874167   7.9753639
  41.2912980  32.6919798   7.8600305  42.2180098  31.8290695   8.6897708
  42.5079320  29.1651016   4.5654998  43.1042893  28.9407038   3.8511961
  42.5654292  28.4235761   5.1680446  46.5412999  31.4735583   4.9703432
  46.2413722  32.3760622   4.8619240  46.1964058  31.2067766   5.8224585
  39.9925480  27.9249380   1.0040137  39.0675977  27.7925594   1.2117829
  40.2409893  28.7043599   1.5010079  37.3534291  27.5682653   1.8383926
  37.4826672  27.8217132   2.7523338  36.6731742  28.1610361   1.5188581
  44.0151008  25.4107769  10.5935767  43.2384342  25.9701689  10.5838632
  44.6541571  25.8964552  11.1150637  42.2697380  28.2193222  10.1553734
  43.0112065  28.7578266   9.8788558  41.5634366  28.8459511  10.3125286
  47.7452720  30.3622363   8.7525895  48.1536076  29.9204773   8.0080528
  47.0229982  29.7874990   9.0060088  44.0983790  25.2994969   6.1259452
  44.9444985  25.7234383   6.2694101  44.0382428  24.6428594   6.8198016
  47.2483236  22.9599338   7.7840626  47.0044167  23.7141398   7.2474902
  47.5243166  23.3384685   8.6187873  49.2021698  29.5037950   6.4617892
  49.4138594  30.1469710   5.7852273  49.1551447  28.6700267   5.9939822
  46.8047927  22.1155771   3.3654464  45.9432406  22.4137024   3.6571201
  46.8310362  22.3326170   2.4335496  40.5133578  30.2069443   2.7108033
  41.0834935  30.6356711   2.0725517  41.1041690  29.9252027   3.4092218
  41.0058744  25.3732870  10.9569044  40.3757405  26.0549151  11.1904441
  40.8994832  25.2615952  10.0122182  36.3003717  25.0404666   1.8834968
  35.5102771  25.2962195   1.4075079  36.7914964  25.8553004   1.9887009
  38.2518462  25.4049246  -1.1581555  37.4549625  25.5167940  -0.6398059
  38.0244054  25.7435898  -2.0240665  44.0824130  31.9293949   6.7900959
  44.1468562  32.3914356   7.6259131  43.3735054  31.2991314   6.9183269
  34.5841420  25.2935157   4.3149959  34.8349458  26.1782167   4.5807535
  35.1200968  25.1139758   3.5425051  40.2839487  19.6753636  13.3194295
  39.8906433  19.1219835  13.9941939  41.1005627  19.9864215  13.7100813
  43.2007448  21.0911515  10.9114552  43.9417161  21.6918668  10.8319014
  43.4325371  20.3489153  10.3532594  38.3448786  26.2767882   9.1892781
  38.2302301  25.3753140   9.4899880  37.4893304  26.5231579   8.8377598
  45.4240624  34.2185623  10.7880282  44.9804478  33.4322001  10.4701186
  46.0857837  34.4064773  10.1224173  40.1827745  35.7481424   5.3140960
  40.7335170  35.6198488   4.5417954  39.3439221  36.0476313   4.9635853
  47.5221862  34.4988423   8.8161683  47.5040337  35.3197304   8.3241952
  48.4441782  34.3742498   9.0411824  43.9794916  32.0132552   9.6585192
  44.5123253  31.2520840   9.4284500  43.4508997  31.7206204  10.4009346
  46.2261151  19.4897273   3.1528067  45.7225947  19.4527408   2.3395872
  46.5191758  20.3990016   3.2124723  42.4704037  19.5736003   2.1594248
  43.3357034  19.3778812   1.8000138  42.5381546  19.3446355   3.0863605
  40.0766356  21.8038211  -0.4689385  40.6510108  21.5813392  -1.2016192
  40.6637339  21.8726905   0.2839216  45.6126764  25.1661393   2.5833332
  44.6949326  25.3876340   2.4255020  46.0286908  25.2407704   1.7245039
  35.2376633  26.7816864  -1.3221831  35.0401032  26.1886225  -2.0470765
  34.6823297  26.4769074  -0.6045892  43.2173356  26.6739970   0.7972762
  43.2721966  25.7213807   0.7215239  42.4064558  26.8299409   1.2814060
  41.1565716  25.2917030  -1.4436859  40.3433582  25.5911201  -1.0371667
  41.6524710  24.8972719  -0.7262377  46.7539928  25.7558855   7.3878035
  47.1089316  25.9830328   8.2472501  47.4012059  26.0877231   6.7655290
  40.6479791  22.8635386   4.1724376  41.2879170  22.7224145   3.4747339
  39.8157322  22.5769899   3.7962978  37.6508407  22.8335711  -1.0502637
  37.9115225  23.7481044  -1.1593477  38.4725580  22.3660153  -0.9006025
  39.1233333  24.2473468   6.1196187  39.7956386  24.0390830   5.4708836
  38.2963119  24.0495554   5.6801419  45.0258905  20.8735409   8.1361848
  44.3786820  21.5725358   8.0426324  45.7959920  21.3071553   8.5038096
  48.4337703  31.1384261  11.2112401  48.2823209  30.9094813  10.2942485
  48.4242382  32.0954862  11.2243746  45.2023039  28.7116174   6.1958668
  46.1315099  28.8627333   6.0227635  44.7814069  28.8000194   5.3407314
  44.0011371  32.7366838   3.9657205  43.8622457  32.3685622   4.8383144
  43.2125967  33.2514477   3.7941163  39.5260830  27.5216071   6.8798624
  39.3880628  26.7896310   7.4810163  40.4365753  27.4324971   6.5982812
  42.1543131  27.2336030   6.3682304  42.8642749  26.5929222   6.3268922
  42.1112439  27.4848925   7.2908485  50.1429909  34.1703383   9.2888883
  50.0842455  33.4862604   8.6219466  50.5449428  34.9122373   8.8369509
  40.8672065  24.2201248   8.1877943  40.3309422  23.7691986   8.8399540
  40.2788773  24.3547157   7.4448408  50.1447317  32.1342967   7.5202863
  49.2574095  31.7968889   7.6429262  50.7145868  31.4025999   7.7571628
  31.7976464  28.4667059   0.8445914  32.4847504  28.1528789   0.2566930
  31.6424592  29.3708424   0.5713166  36.6011186  23.3557256   5.2730938
  36.5169375  22.7482925   4.5381348  35.7793892  23.8466274   5.2740434
  43.3569868  23.9828202   0.3672818  42.9867656  23.4299243   1.0553723
  43.8528961  23.3786336  -0.1852182  41.1859067  34.4425697   7.4627836
  41.8868527  35.0762180   7.6157230  40.7154182  34.7840429   6.7023475
  48.9860353  26.9970305   5.2880386  48.3331803  27.2446212   4.6332839
  49.3640733  26.1834443   4.9542863  45.0347926  27.7390116  11.7746423
  44.3588563  27.6384245  12.4448798  45.8575560  27.5829329  12.2382420
  36.7826785  33.9762052   4.3958938  37.3680222  33.2305740   4.5286842
  36.5851624  34.2866009   5.2795602  31.3744440  26.5467652   3.1163381
  31.4128539  26.0131243   3.9100499  30.8684733  26.0202858   2.4974359
  38.7535202  21.3932193   6.6125924  38.8176529  22.2547024   6.2003321
  38.6902322  20.7806195   5.8798282  38.2287475  23.4655325  10.2598958
  38.8559513  23.0832403  10.8736482  37.3715394  23.2469527  10.6254650
  48.6281583  33.8718301  11.8652693  49.1721487  34.4848259  11.3707648
  48.0468428  34.4297879  12.3819706  35.0053017  25.2731755  -3.8082687
  35.3006459  24.3642433  -3.8615634  34.1041053  25.2519494  -4.1301685
  38.5347264  23.3487751   2.1744861  37.8133850  23.9623719   2.0352335
  39.3240520  23.8845516   2.0961507  41.3373578  20.6842178   8.4485513
  41.8607980  20.9304474   9.2111822  41.1185911  21.5162212   8.0288650
  36.7340859  22.9545852  -3.6843362  36.4053565  22.0743231  -3.8668256
  37.0880230  22.8993521  -2.7966973  42.5426123  21.6255873   6.1335184
  42.2022943  20.8263686   6.5355864  41.8365129  21.9257584   5.5612017
  43.1942595  18.7105185   4.5862507  44.0168664  18.2365663   4.4641397
  43.4380658  19.4895669   5.0861193  40.7181174  25.4024306   2.3954485
  40.5725754  25.7164609   3.2878767  40.2406377  26.0209206   1.8425384
  42.5777556  22.3926854   2.4435375  42.5639125  21.4967947   2.1067673
  43.2949985  22.3997518   3.0773661  44.4303687  22.8264194   4.4888502
  44.1721465  23.7481265   4.4872833  43.8988728  22.4294629   5.1788966
  35.1926836  27.9429650   5.3342146  34.6480304  28.7189458   5.4662421
  36.0706186  28.2900455   5.1761268  35.9792858  27.0699547   8.2272303
  35.2374594  27.2182182   8.8136934  35.6585602  27.3307812   7.3639053
  43.9236520  36.6115525   8.0252693  44.2323647  36.3664672   8.8975393
  44.7212002  36.8162163   7.5371564  34.6258076  32.8751302   1.2171632
  33.7889985  32.4473476   1.0355633  34.5981722  33.0683745   2.1542423
  41.4655532  22.7873231  11.9212878  41.5143687  23.6635354  11.5390647
  42.0078046  22.2450625  11.3484521  51.9510378  33.3314355  11.2014015
  51.1605921  33.3138494  10.6618514  51.7143732  33.8702648  11.9563051
  52.0708253  30.1806821   8.5146743  52.1206258  30.0156829   9.4562266
  51.9622176  29.3134080   8.1244624  49.3612015  26.1637749   9.8306050
  50.2621878  26.0244214   9.5390048  49.4359990  26.3292204  10.7704227
  43.6954820  23.5404604   8.6759236  42.8258130  23.8338170   8.4041825
  43.9314301  24.1245049   9.3966500  53.5726449  32.6003763   8.7588765
  53.2811258  32.9633743   9.5952226  52.9598581  31.8870771   8.5802097
  51.8213638  27.7236377   7.2268823  52.2967759  27.9164024   6.4187674
  50.8979203  27.7795563   6.9812206  46.3993854  19.7584221   6.1924657
  46.9175798  20.4945248   5.8671145  46.0448987  20.0648214   7.0271416
  50.5215307  24.6002137   5.4597128  51.4732730  24.7000235   5.4809352
  50.3518757  23.8080406   5.9695213  48.5429686  21.6857721   5.6456529
  47.9479618  21.9662733   4.9503018  48.2579383  22.1751621   6.4173270
  44.7225408  30.7422056  12.0767289  45.6428417  30.9200655  12.2707336
  44.6874991  29.7978101  11.9246988  33.9407573  25.9360650   1.0020564
  33.6210357  25.0825958   0.7094938  33.3941001  26.1509228   1.7578531
  37.7187480  28.6523091   4.7190070  37.9373490  29.5840199   4.7378104
  38.1313254  28.2931065   5.5044874  42.5915346  24.2256297  14.1092819
  42.4912073  25.1750654  14.0404910  42.3736888  23.8974535  13.2368889
  33.8095833  29.5563561   2.9713685  33.1159304  29.1417514   2.4583640
  34.5568824  29.5984098   2.3747104  42.4546616  27.6553435  12.9257881
  41.9713698  28.4553796  13.1321770  42.5407555  27.6661380  11.9725325
  35.7232575  29.4881815   0.8479700  35.7003264  29.5869502  -0.1038417
  36.0333212  30.3346966   1.1696866  38.3819953  31.5457970   4.9626315
  39.3363207  31.5141912   4.8956246  38.1832477  31.0848594   5.7776540
  38.9719335  30.1159086   7.5297112  39.7912224  30.6103165   7.5531949
  39.2456143  29.1991054   7.5014680  34.2254250  24.4497220   8.2289309
  34.8713113  23.9396174   8.7176534  34.0171401  25.1865902   8.8032735
  46.7507642  31.5178067  13.7281450  47.6198801  31.6918720  13.3668085
  46.2714393  32.3372484  13.6057179  38.5651741  21.5964837  12.3264323
  39.4283202  21.2401642  12.5367648  37.9917151  21.2578732  13.0139728
  51.1233241  35.0045554  13.3194295  50.7300187  34.4511752  13.9941939
  51.9399382  35.3156132  13.7100813  54.0401202  36.4203433  10.9114552
  54.7810916  37.0210586  10.8319014  54.2719125  35.6781071  10.3532594
  49.0681229  38.7947243  10.2598958  49.6953268  38.4124320  10.8736482
  48.2109148  38.5761445  10.6254650  52.3049286  38.1165149  11.9212878
  52.3537442  38.9927272  11.5390647  52.8471801  37.5742542  11.3484521
  53.4309100  39.5548214  14.1092819  53.3305827  40.5042571  14.0404910
  53.2130642  39.2266453  13.2368889  45.0648004  39.7789138   8.2289309
  45.7106868  39.2688092   8.7176534  44.8565155  40.5157819   8.8032735
  49.4045495  36.9256755  12.3264323  50.2676957  36.5693560  12.5367648
  48.8310906  36.5870650  13.0139728   4.2104744  44.0540573  27.5334604
   3.4568453  43.4847971  27.3778609   4.3452286  44.0203238  28.4805239
   0.5753357  45.4948562  27.8300719   1.4100248  45.9338366  27.9938279
   0.7112486  45.0187215  27.0108964   4.6211159  44.2116183  30.2654848
   5.3514548  43.9501471  30.8262552   4.0118105  43.4744905  30.3056916
   2.7026457  42.3524046  30.8629300   1.9759620  42.2180011  30.2545791
   2.2873743  42.6600875  31.6686018   2.6275324  41.8802099  26.9906152
   2.0674882  41.9495288  27.7637714   2.0218828  41.7043084  26.2705649
   3.7889590  47.7776455  31.7388217   3.4453860  48.6678097  31.6627328
   4.1568553  47.5878113  30.8757802   5.5877256  47.0370014  26.8405955
   5.8936133  46.1767378  26.5531870   6.3129861  47.6287635  26.6404949
   3.2931428  46.8368340  28.2634937   3.5733182  46.1691530  28.8895363
   4.0782035  47.0297436  27.7509601   7.4533579  49.0144153  27.1302907
   7.2558401  48.7059241  28.0146239   8.0633285  49.7405792  27.2600837
   3.2034959  45.9663878  24.7868526   2.4367355  45.4122365  24.9325208
   3.6145664  46.0385747  25.6482678   4.2104746  21.0602696  14.2579911
   3.4568454  20.4910094  14.1023915   4.3452287  21.0265360  15.2050545
   0.5753358  22.5010684  14.5546025   1.4100249  22.9400489  14.7183586
   0.7112487  22.0249338  13.7354271   4.6211161  21.2178306  16.9900155
   5.3514549  20.9563594  17.5507858   4.0118106  20.4807028  17.0302223
   2.7026458  19.3586169  17.5874606   1.9759621  19.2242133  16.9791098
   2.2873745  19.6662997  18.3931324   2.6275325  18.8864222  13.7151459
   2.0674883  18.9557411  14.4883021   2.0218829  18.7105206  12.9950955
   4.2131344  35.5620735  16.4081415   4.8509754  35.4427483  15.7044755
   4.0952187  36.5101579  16.4669367   1.0221050  35.5148164  16.3442939
   0.6839562  35.3989228  15.4563474   1.8910818  35.1139329  16.3243946
   1.5040833  36.6683015  22.3029145   1.4929474  36.2735814  21.4309649
   1.6661473  35.9349088  22.8962916   3.7672612  33.2872189  13.4834623
   4.5535702  32.8691613  13.1325040   4.0311317  34.1918282  13.6516271
   9.1681040  33.2247423  14.3867601   9.9006211  32.6546639  14.6205431
   8.4120395  32.8369023  14.8274107   6.6906460  26.9368997  18.8462210
   6.3589785  27.8064408  18.6223425   6.0952073  26.6205281  19.5256240
   3.1837979  39.1381543  18.2458123   2.8838702  40.0406581  18.1373930
   2.8389039  38.8713726  19.0979276   6.5835123  31.6564083  15.9255560
   5.6752001  31.5879491  15.6314321   6.5322719  32.1336028  16.7537385
   8.4496770  29.8580521  17.7033434   7.8071150  30.1513054  17.0573228
   7.9451698  29.7433442  18.5086631   6.1036933  33.6043694   8.3919293
   7.0154789  33.8371081   8.2166991   5.5946580  34.1880739   7.8294372
   4.3877701  38.0268322  22.0280586   4.7961057  37.5850733  21.2835218
   3.6654962  37.4520950  22.2814779   0.7408771  32.9640929  19.4014143
   1.5869966  33.3880343  19.5448792   0.6807409  32.3074553  20.0952706
   4.7106516  38.5869513  15.7832875   4.0815378  38.7515227  15.0808942
   4.3232178  39.0011122  16.5543839   8.5895747  39.5223951  13.1377238
   7.9046786  39.9022852  12.5874272   8.6739597  40.1319277  13.8709186
   3.8908216  30.6245297  21.0595316   3.6469148  31.3787358  20.5229592
   4.1668147  31.0030645  21.8942563   5.8446679  37.1683910  19.7372582
   6.0563574  37.8115670  19.0606963   5.7976427  36.3346226  19.2694512
   3.4472908  29.7801730  16.6409154   2.5857387  30.0782984  16.9325892
   3.4735343  29.9972129  15.7090187   6.9592507  40.0455865  17.9094939
   7.7809951  39.6436052  17.6277621   6.9554910  39.9424099  18.8611055
  15.0498500  36.3894614  14.2579911  14.2962208  35.8202012  14.1023915
  15.1846041  36.3557278  15.2050545   2.0665604  41.8831582  24.0634972
   1.6229459  41.0967961  23.7455877   2.7282818  42.0710733  23.3978863
   4.1646843  42.1634382  22.0916373   4.1465318  42.9843263  21.5996643
   5.0866763  42.0388458  22.3166515   3.7889592  24.7838578  18.4633524
   3.4453861  25.6740220  18.3872634   4.1568554  24.5940235  17.6003109
   2.8686132  27.1543233  16.4282757   2.3650928  27.1173368  15.6150562
   3.1616739  28.0635976  16.4879413   8.7274149  37.5279544   8.9059132
   7.9503591  37.1890703   8.4614294   9.4065629  37.5332167   8.2314097
   3.5426178  32.6474281   8.7965740   3.2376313  32.9620430   9.6475883
   4.4956620  32.7255701   8.8393073   6.9665455  37.0013525  15.5625740
   6.3089130  37.6912786  15.6505869   7.7705855  37.3909957  15.9059726
   5.7770914  35.3557898  13.6129682   6.2902796  35.9887889  14.1151392
   6.4272138  34.7559093  13.2473042   2.2551745  32.8307353  15.8588022
   1.3374306  33.0522300  15.7009710   2.6711889  32.9053664  14.9999730
   3.0386793  34.2298769  10.9890703   3.7858612  34.7420166  10.6797825
   3.3078382  33.9082821  11.8495096   6.5432710  40.3363899  11.7408825
   6.0895038  39.4954809  11.7974015   5.9126677  40.9725297  12.0783605
   5.4865630  31.2655885  12.9709492   4.7488387  30.7533271  13.3019735
   5.7392404  30.8256267  12.1592769   4.9865650  42.1740396  12.6758643
   5.2788624  42.7345453  11.9571008   5.4964270  42.4668957  13.4311802
   5.5877257  24.0432137  13.5651261   5.8936134  23.1829500  13.2777176
   6.3129862  24.6349757  13.3650255   3.3964909  33.4204814  20.6632725
   3.7514296  33.6476287  21.5227191   4.0437040  33.7523191  20.0409980
   9.1262646  36.5423250  11.3682054   8.9880544  36.7324846  10.4403243
   8.7698864  37.3042633  11.8250105   9.1532025  38.6099777  16.3793326
   9.5868532  38.5175066  17.2276380   9.8663606  38.5857278  15.7413342
   2.8859920  42.2101871  17.9126426   2.9396942  42.7792808  18.6804142
   2.0174701  42.3803756  17.5480463  10.0147575  38.6523478  18.9126211
  10.2083465  39.5569288  19.1585486   9.9148193  38.1930897  19.7464796
   1.6683886  28.5381368  21.4116538   1.0211801  29.2371318  21.3181015
   2.4384901  28.9717512  21.7792787   5.0762683  38.8030221  24.4867092
   4.9248190  38.5740772  23.5697175   5.0667363  39.7600822  24.4998437
   1.8448020  36.3762133  19.4713358   2.7740080  36.5273293  19.2982325
   1.4239050  36.4646154  18.6162005   2.1941567  39.7794400  14.6300733
   1.8591399  39.7395170  15.5258383   1.6945512  39.1139116  14.1571144
   6.7854890  41.8349343  22.5643573   6.7267436  41.1508563  21.8974156
   7.1874408  42.5768333  22.1124199   6.7872297  39.7988927  20.7957553
   5.8999076  39.4614849  20.9183952   7.3570848  39.0671958  21.0326319
   3.4159881  29.5056779  13.9155823   3.9128580  28.7526741  13.5956894
   2.6446862  29.5421096  13.3499033  11.2689638  35.2097144  15.5574115
  11.2579514  36.0921860  15.1868048  10.4007017  34.8568695  15.3628652
   2.7772134  44.3577213  19.9176955   3.4900106  44.9924678  19.8452856
   2.2862163  44.4541079  19.1016957   4.4989661  38.2628466  11.4894247
   3.5645940  38.3829929  11.3198951   4.6766330  37.3600933  11.2254257
   7.8862213  34.1045785  12.0244281   8.3522665  34.9373777  11.9504583
   8.3369713  33.6390767  12.7289539   5.9538444  40.4489607   9.0230433
   6.2298288  40.3346201   9.9324307   5.0842942  40.0507092   8.9842606
   5.8578875  26.4726372  16.0635182   4.9441955  26.7030599  16.2317389
   6.2871977  26.5564816  16.9149215   5.6285334  34.6616264  18.5635076
   4.9756784  34.9092172  17.9087529   6.0065714  33.8480403  18.2297553
   1.6772907  35.4036075  25.0501113   1.0013544  35.3030205  25.7203488
   2.5000541  35.2475289  25.5137110   5.2706564  41.5364260  25.1407384
   5.8146468  42.1494219  24.6462338   4.6893409  42.0943839  25.6574397
   3.5564077  44.6584978  16.2722411   3.4315216  43.8574718  15.7633357
   4.2143168  45.1531172  15.7836381   5.6198985  42.4593998  17.9001962
   4.6729321  42.3399350  17.8280288   5.9681758  41.5716497  17.9828223
   2.6245419  42.2546715  14.1006314   2.4770381  41.3263422  14.2813884
   3.4498912  42.2766805  13.6163389   6.2279540  43.0775273  15.1871186
   7.1526088  42.8718135  15.0495638   6.0594844  42.8291675  16.0960528
   2.6206933  30.1084552   9.0938431   2.8370547  30.9909190   8.7927259
   2.1401000  29.7170766   8.3644073   6.0174857  43.5960941  10.5433278
   6.1911734  43.0307363   9.7907130   6.5103748  44.3961836  10.3612768
   1.4930624  26.6242104  14.1244355   1.5152320  26.6881437  13.1696335
   1.9098683  25.7846613  14.3184861  11.8714248  36.3597364  12.1623578
  12.3145394  35.6104689  11.7642701  10.9940758  36.3507500  11.7797310
   8.9041452  40.3627411   9.1717507   9.4292776  40.7014684   8.4466827
   8.8163805  39.4274426   8.9880642   0.5661501  44.2761484  21.3007384
   0.8748627  44.0310631  22.1730083   1.3636983  44.4808123  20.8126254
   8.5935358  40.9960314  24.4768705   7.8030902  40.9784453  23.9373204
   8.3568713  41.5348608  25.2317742   8.7133233  37.8452781  21.7901433
   8.7631238  37.6802788  22.7316956   8.6047157  36.9780040  21.3999314
   6.0036996  33.8283709  23.1060740   6.9046859  33.6890174  22.8144738
   6.0784970  33.9938164  24.0458918  10.2151430  40.2649722  22.0343455
   9.9236239  40.6279703  22.8706916   9.6023562  39.5516731  21.8556787
  11.4147113  37.8302602  14.5546025  12.2494004  38.2692406  14.7183586
  11.5506241  37.3541255  13.7354271   8.4638619  35.3882337  20.5023513
   8.9392740  35.5809983  19.6942364   7.5404184  35.4441523  20.2566897
   3.0418835  27.4230181  19.4679347   3.5600779  28.1591207  19.1425835
   2.6873968  27.7294174  20.3026106   3.2931429  23.8430463  14.9880244
   3.5733183  23.1753652  15.6140670   4.0782036  24.0359559  14.4754907
   7.1640287  32.2648097  18.7351819   8.1157710  32.3646195  18.7564043
   6.9943738  31.4726366  19.2449903   5.1854667  29.3503680  18.9211220
   4.5904599  29.6308693  18.2257708   4.9004364  29.8397581  19.6927961
   9.6428365  35.4854217  17.8494118   9.6104685  34.5470217  18.0353802
  10.2528989  35.5638253  17.1159943   9.7922854  32.2765260  17.8952401
   9.2761902  31.4923717  17.7082330  10.6762802  31.9483977  18.0598921
   7.4533581  26.0206276  13.8548214   7.2558402  25.7121364  14.7391546
   8.0633286  26.7467915  13.9846144  15.4604915  36.5470224  16.9900155
  16.1908304  36.2855512  17.5507858  14.8511861  35.8098946  17.0302223
  13.5420212  34.6878086  17.5874606  12.8153376  34.5534051  16.9791098
  13.1267499  34.9954915  18.3931324   1.3650389  38.4068016  25.3521979
   2.2853398  38.5846615  25.5462026   1.3299972  37.4624061  25.2001679
   3.2107227  25.9015183  11.6044745   3.7638266  26.3210636  12.2634769
   3.4477314  24.9750931  11.6467701   6.5886034  28.0115708  11.1123410
   6.0084703  28.6700512  10.7301462   6.3221967  27.1893052  10.7010827
   5.0389601  27.4120766  13.3144730   5.5389379  27.5237300  12.5059049
   5.6825209  27.1081818  13.9545538   5.3710912  30.1715798  10.1679758
   4.4836767  30.4565449   9.9499953   5.7864901  30.0109562   9.3207035
   8.7225449  30.1962319  13.8834097   9.4985839  30.6858772  14.1558714
   7.9973583  30.6220373  14.3405967  11.1598007  30.9089938  14.9408038
  11.7542498  30.6685674  14.2301346  11.2324591  30.1897069  15.5681574
   5.3451936  35.6870334  10.3830048   5.2887138  36.1438886   9.5437681
   5.8980279  34.9261019  10.2052891   9.1556742  31.4760066  11.2080168
   8.8993676  31.0756702  12.0388375   8.5309610  32.1903860  11.0830307
  13.4669080  34.2156139  13.7151459  12.9068638  34.2849329  14.4883021
  12.8612583  34.0397124  12.9950955   6.0786715  36.8775115   7.6782577
   6.0235519  36.7119387   6.7371021   5.4532771  37.5851148   7.8344767
   3.3932623  39.1824027  27.0036140   4.2623782  39.3564680  26.6422775
   2.9139374  40.0018444  26.8811869   3.2034960  22.9726001  11.5113833
   2.4367356  22.4184488  11.6570515   3.6145665  23.0447870  12.3727984
  15.0525098  50.8912653  16.4081415  15.6903508  50.7719401  15.7044755
  14.9345941  51.8393497  16.4669367  11.8614805  50.8440081  16.3442939
  11.5233316  50.7281146  15.4563474  12.7304573  50.4431246  16.3243946
  14.6066367  48.6164107  13.4834623  15.3929456  48.1983530  13.1325040
  14.8705071  49.5210199  13.6516271  20.0074794  48.5539340  14.3867601
  20.7399966  47.9838557  14.6205431  19.2514150  48.1660941  14.8274107
  11.6250914  50.9766582  11.5830944  11.2609121  50.4497203  12.2943865
  12.4818030  50.5865051  11.4097429  17.5300214  42.2660914  18.8462210
  17.1983539  43.1356325  18.6223425  16.9345828  41.9497198  19.5256240
  17.4228878  46.9856001  15.9255560  16.5145755  46.9171409  15.6314321
  17.3716473  47.4627945  16.7537385  11.4969743  48.4045646  23.8690457
  10.7203078  48.9639566  23.8593322  12.1360307  48.8902429  24.3905327
  19.2890524  45.1872439  17.7033434  18.6464904  45.4804972  17.0573228
  18.7845453  45.0725359  18.5086631  16.9430688  48.9335612   8.3919293
  17.8548544  49.1662999   8.2166991  16.4340335  49.5172656   7.8294372
  11.5802525  48.2932847  19.4014143  12.4263721  48.7172260  19.5448792
  11.5201163  47.6366471  20.0952706  14.7301971  45.9537215  21.0595316
  14.4862903  46.7079276  20.5229592  15.0061901  46.3322563  21.8942563
  16.6840434  52.4975827  19.7372582  16.8957329  53.1407587  19.0606963
  16.6370182  51.6638144  19.2694512  14.2866663  45.1093648  16.6409154
  13.4251142  45.4074902  16.9325892  14.3129097  45.3264047  15.7090187
   8.4877480  48.3670748  24.2323734   7.8576140  49.0487028  24.4659131
   8.3813567  48.2553829  23.2876873  25.8892255  51.7186531  14.2579911
  25.1355963  51.1493929  14.1023915  26.0239796  51.6849196  15.2050545
   7.7658222  42.6691513  26.5948985   7.3725168  42.1157712  27.2696630
   8.5824363  42.9802092  26.9855503  10.6826183  44.0849393  24.1869242
  11.4235897  44.6856546  24.1073704  10.9144106  43.3427030  23.6287284
  14.6283346  40.1130496  18.4633524  14.2847616  41.0032137  18.3872634
  14.9962309  39.9232153  17.6003109  12.1780740  44.9488807  12.0291197
  11.3222336  44.5595658  11.8496836  12.5907692  45.0280768  11.1690983
  13.7079887  42.4835151  16.4282757  13.2044682  42.4465286  15.6150562
  14.0010493  43.3927893  16.4879413   9.9522772  42.5673880  15.4348939
  10.8175769  42.3716689  15.0754828  10.0200281  42.3384232  16.3618295
  19.5667903  52.8571461   8.9059132  18.7897346  52.5182621   8.4614294
  20.2459384  52.8624084   8.2314097  14.3819932  47.9766199   8.7965740
  14.0770068  48.2912348   9.6475883  15.3350374  48.0547619   8.8393073
  17.8059210  52.3305443  15.5625740  17.1482884  53.0204704  15.6505869
  18.6099609  52.7201874  15.9059726   7.5585092  44.7976088  12.8065305
   8.1328843  44.5751270  12.0738498   8.1456074  44.8664783  13.5593907
  16.6164669  50.6849815  13.6129682  17.1296550  51.3179807  14.1151392
  17.2665893  50.0851011  13.2473042   9.8607759  41.6717337  11.5340375
   9.2072172  41.3566354  10.9096990   9.8188233  41.0493078  12.2600198
  13.0945500  48.1599271  15.8588022  12.1768061  48.3814218  15.7009710
  13.5105643  48.2345581  14.9999730  13.8780547  49.5590686  10.9890703
  14.6252366  50.0712084  10.6797825  14.1472137  49.2374739  11.8495096
  16.3259384  46.5947803  12.9709492  15.5882141  46.0825189  13.3019735
  16.5786158  46.1548184  12.1592769  16.4271012  39.3724055  13.5651261
  16.7329889  38.5121418  13.2777176  17.1523617  39.9641675  13.3650255
  10.6992092  49.6677848  14.0727452  10.7540701  48.7151684  13.9969929
   9.8883294  49.8237287  14.5568751   8.6384451  48.2854907  11.8317831
   7.8252317  48.5849078  12.2383023   9.1343446  47.8910596  12.5492313
  14.2358663  48.7496732  20.6632725  14.5908051  48.9768205  21.5227191
  14.8830794  49.0815109  20.0409980  19.9656400  51.8715168  11.3682054
  19.8274299  52.0616764  10.4403243  19.6092619  52.6334551  11.8250105
   8.1298526  45.8573263  17.4479066   8.7697906  45.7162022  16.7502029
   7.2976057  45.5707776  17.0717668  19.9925780  53.9391695  16.3793326
  20.4262286  53.8466984  17.2276380  20.7057360  53.9149195  15.7413342
   6.6052068  47.2411345  19.3950877   7.2775121  47.0328707  18.7463526
   5.7781855  47.0433431  18.9556110  20.8541329  53.9815396  18.9126211
  21.0477219  54.8861206  19.1585486  20.7541947  53.5222815  19.7464796
  12.5077640  43.8673286  21.4116538  11.8605555  44.5663236  21.3181015
  13.2778655  44.3009430  21.7792787  12.6841774  51.7054051  19.4713358
  13.6133834  51.8565211  19.2982325  12.2632804  51.7938072  18.6162005
   9.6361866  50.2273907  19.6436994  10.3461484  49.5867100  19.6023613
   9.5931174  50.4786802  20.5663175   8.3490800  47.2139125  21.4632634
   7.8128157  46.7629864  22.1154230   7.7607508  47.3485034  20.7203098
   4.0829921  46.3495133  18.5485628   3.9988110  45.7420803  17.8136038
   3.2612628  46.8404151  18.5495125  14.2553635  44.8348697  13.9155823
  14.7522335  44.0818659  13.5956894  13.4840616  44.8713013  13.3499033
  22.1083392  50.5389062  15.5574115  22.0973269  51.4213778  15.1868048
  21.2400772  50.1860613  15.3628652  10.8388604  46.9766080  13.6427508
  10.4686391  46.4237120  14.3308413  11.3347696  46.3724213  13.0902508
  18.7255967  49.4337703  12.0244281  19.1916419  50.2665695  11.9504583
  19.1763468  48.9682685  12.7289539  16.6972630  41.8018290  16.0635182
  15.7835710  42.0322517  16.2317389  17.1265731  41.8856734  16.9149215
  16.4679088  49.9908182  18.5635076  15.8150539  50.2384089  17.9087529
  16.8459468  49.1772320  18.2297553  12.5166661  50.7327993  25.0501113
  11.8407298  50.6322122  25.7203488  13.3394295  50.5767207  25.5137110
   6.2353937  44.3870070  19.8880614   6.2995264  45.2484901  19.4758012
   6.1721058  43.7744072  19.1552972   5.7106210  46.4593203  23.5353648
   6.3378249  46.0770280  24.1491173   4.8534129  46.2407405  23.9009341
   6.0166000  46.3425629  15.4499552   5.2952585  46.9561596  15.3107025
   6.8059255  46.8783393  15.3716198   8.8192313  43.6780055  21.7240203
   9.3426715  43.9242352  22.4866513   8.6004646  44.5100090  21.3043341
  10.0244858  44.6193750  19.4089874   9.6841679  43.8201563  19.8110554
   9.3183865  44.9195461  18.8366707  10.6761330  41.7043063  17.8617197
  11.4987399  41.2303541  17.7396087  10.9199394  42.4833546  18.3615883
  13.4600687  45.4376470   9.0938431  13.6764302  46.3201108   8.7927259
  12.9794755  45.0462683   8.3644073   8.1999909  48.3962183  15.6709176
   8.0544490  48.7102486  16.5633457   7.7225112  49.0147084  15.1180074
  10.0596292  45.3864731  15.7190065  10.0457860  44.4905825  15.3822363
  10.7768720  45.3935395  16.3528351  11.9122422  45.8202071  17.7643193
  11.6540200  46.7419142  17.7627523  11.3807463  45.4232506  18.4543657
   9.4633188  44.2679112  10.9877635   9.5849099  43.3395758  11.1868523
   9.1735230  44.2817797  10.0755951  12.3324378  41.9534022  14.1244355
  12.3546075  42.0173355  13.1696335  12.7492437  41.1138531  14.3184861
  22.7108002  51.6889282  12.1623578  23.1539148  50.9396607  11.7642701
  21.8334513  51.6799418  11.7797310   8.9474267  45.7811109  25.1967568
   8.9962423  46.6573232  24.8145337   9.4896781  45.2388502  24.6239211
  19.5526988  53.1744699  21.7901433  19.6024993  53.0094706  22.7316956
  19.4440911  52.3071958  21.3999314  16.8430750  49.1575627  23.1060740
  17.7440613  49.0182091  22.8144738  16.9178725  49.3230081  24.0458918
  11.1773556  46.5342481  21.9513927  10.3076865  46.8276047  21.6796515
  11.4133036  47.1182926  22.6721190  22.2540867  53.1594520  14.5546025
  23.0887758  53.5984324  14.7183586  22.3899996  52.6833173  13.7354271
  19.3032373  50.7174255  20.5023513  19.7786495  50.9101901  19.6942364
  18.3797938  50.7733440  20.2566897  13.8812589  42.7522098  19.4679347
  14.3994533  43.4883125  19.1425835  13.5267722  43.0586092  20.3026106
  14.1325184  39.1722381  14.9880244  14.4126937  38.5045570  15.6140670
  14.9175791  39.3651476  14.4754907  18.0034042  47.5940015  18.7351819
  18.9551465  47.6938112  18.7564043  17.8337492  46.8018283  19.2449903
  16.0248421  44.6795598  18.9211220  15.4298354  44.9600611  18.2257708
  15.7398118  45.1689499  19.6927961  20.4822120  50.8146134  17.8494118
  20.4498440  49.8762135  18.0353802  21.0922743  50.8930171  17.1159943
  20.6316608  47.6057178  17.8952401  20.1155657  46.8215635  17.7082330
  21.5156557  47.2775894  18.0598921  18.2927335  41.3498193  13.8548214
  18.0952156  41.0413282  14.7391546  18.9027041  42.0759832  13.9846144
  26.2998670  51.8762141  16.9900155  27.0302058  51.6147429  17.5507858
  25.6905615  51.1390863  17.0302223  24.3813967  50.0170004  17.5874606
  23.6547130  49.8825969  16.9791098  23.9661254  50.3246832  18.3931324
  12.1210434  42.1529054   9.9820449  11.3111162  41.8076138  10.3575695
  12.8094850  41.8436597  10.5708060  14.0500982  41.2307100  11.6044745
  14.6032020  41.6502554  12.2634769  14.2871068  40.3042848  11.6467701
  10.0734081  47.2194174  27.3847509   9.9730808  48.1688531  27.3159600
   9.8555623  46.8912413  26.5123579  17.4279789  43.3407625  11.1123410
  16.8478458  43.9992430  10.7301462  17.1615722  42.5184970  10.7010827
  15.8783355  42.7412683  13.3144730  16.3783134  42.8529218  12.5059049
  16.5218963  42.4373736  13.9545538  16.2104667  45.5007716  10.1679758
  15.3230522  45.7857366   9.9499953  16.6258656  45.3401479   9.3207035
  19.5619203  45.5254237  13.8834097  20.3379593  46.0150689  14.1558714
  18.8367337  45.9512291  14.3405967  21.9991762  46.2381856  14.9408038
  22.5936252  45.9977592  14.2301346  22.0718345  45.5188987  15.5681574
  16.1845691  51.0162252  10.3830048  16.1280892  51.4730803   9.5437681
  16.7374033  50.2552936  10.2052891  19.9950497  46.8051984  11.2080168
  19.7387431  46.4048619  12.0388375  19.3703365  47.5195778  11.0830307
  24.3062834  49.5448057  13.7151459  23.7462392  49.6141246  14.4883021
  23.7006338  49.3689042  12.9950955  16.9180470  52.2067033   7.6782577
  16.8629274  52.0411304   6.7371021  16.2926525  52.9143066   7.8344767
  10.2276595  41.7075142   7.2567896  10.2155265  42.6516982   7.4136167
  11.1200017  41.5245287   6.9627357  14.0428715  38.3017919  11.5113833
  13.2761111  37.7476405  11.6570515  14.4539420  38.3739787  12.3727984
   6.0470476  44.5902714  25.6019014   6.9101938  44.2339519  25.8122338
   5.4735887  44.2516609  26.2894418  25.4677101  55.4422413  18.4633524
  25.1241370  56.3324055  18.3872634  25.8356063  55.2524071  17.6003109
  27.2664766  54.7015972  13.5651261  27.5723643  53.8413336  13.2777176
  27.9917371  55.2933593  13.3650255  24.9718938  54.5014298  14.9880244
  25.2520692  53.8337487  15.6140670  25.7569545  54.6943394  14.4754907
  29.1321090  56.6790111  13.8548214  28.9345911  56.3705199  14.7391546
  29.7420795  57.4051750  13.9846144  24.8822469  53.6309836  11.5113833
  24.1154865  53.0768323  11.6570515  25.2933174  53.7031705  12.3727984
   5.2706565  18.5426383  11.8652690   5.8146469  19.1556341  11.3707645
   4.6893410  19.1005961  12.3819703   8.5935360  18.0022437  11.2014012
   7.8030903  17.9846576  10.6618511   8.3568714  18.5410731  11.9563048
  10.2151432  17.2711845   8.7588762   9.9236240  17.6341826   9.5952223
   9.6023563  16.5578853   8.5802094   3.3932624  16.1886150  13.7281447
   4.2623784  16.3626802  13.3668082   2.9139375  17.0080567  13.6057176
  15.0525100  27.8974776   3.1326721  15.6903510  27.7781523   2.4290061
  14.9345943  28.8455620   3.1914674  11.8614806  27.8502204   3.0688246
  11.5233317  27.7343269   2.1808781  12.7304574  27.4493369   3.0489252
  12.3434589  29.0037056   9.0274452  12.3323230  28.6089854   8.1554955
  12.5055228  28.2703128   9.6208223   9.0641850  31.7874167   7.9753636
   8.7731716  32.6919798   7.8600302   9.6998834  31.8290695   8.6897705
   9.9898057  29.1651016   4.5654995  10.5861629  28.9407038   3.8511958
  10.0473028  28.4235761   5.1680443  20.0074795  25.5601463   1.1112908
  20.7399967  24.9900680   1.3450737  19.2514151  25.1723063   1.5519414
  17.5300216  19.2723037   5.5707517  17.1983540  20.1418448   5.3468732
  16.9345829  18.9559321   6.2501547  14.0231735  31.4735583   4.9703429
  13.7232458  32.3760622   4.8619237  13.6782795  31.2067766   5.8224582
  17.4228879  23.9918123   2.6500867  16.5145756  23.9233532   2.3559628
  17.3716475  24.4690068   3.4782692  11.4969745  25.4107769  10.5935764
  10.7203079  25.9701689  10.5838629  12.1360308  25.8964552  11.1150634
  19.2890525  22.1934561   4.4278741  18.6464906  22.4867095   3.7818535
  18.7845454  22.0787482   5.2331937   9.7516117  28.2193222  10.1553731
  10.4930801  28.7578266   9.8788555   9.0453102  28.8459511  10.3125283
  15.2271457  30.3622363   8.7525892  15.6354813  29.9204773   8.0080525
  14.5048718  29.7874990   9.0060085  11.5802527  25.2994969   6.1259449
  12.4263722  25.7234383   6.2694098  11.5201164  24.6428594   6.8198012
  15.5500271  30.9223553   2.5078181  14.9209134  31.0869267   1.8054249
  15.1625933  31.3365163   3.2789145  19.4289503  31.8577991  -0.1377455
  18.7440541  32.2376892  -0.6880422  19.5133353  32.4673318   0.5954493
  14.7301972  22.9599338   7.7840623  14.4862904  23.7141398   7.2474899
  15.0061903  23.3384685   8.6187870  16.6840435  29.5037950   6.4617889
  16.8957330  30.1469710   5.7852270  16.6370183  28.6700267   5.9939819
   7.9952314  30.2069443   2.7108030   8.5653671  30.6356711   2.0725514
   8.5860426  29.9252027   3.4092215   8.4877481  25.3732870  10.9569041
   7.8576141  26.0549151  11.1904438   8.3813569  25.2615952  10.0122179
  17.7986263  32.3809905   4.6340246  18.6203706  31.9790093   4.3522928
  17.7948666  32.2778140   5.5856362  11.5642866  31.9293949   6.7900956
  11.6287299  32.3914356   7.6259128  10.8553790  31.2991314   6.9183266
  25.8892256  28.7248654   0.9825217  25.1355964  28.1556052   0.8269222
  26.0239797  28.6911318   1.9295852   7.7658223  19.6753636  13.3194292
   7.3725169  19.1219835  13.9941936   8.5824364  19.9864215  13.7100809
  10.6826184  21.0911515  10.9114549  11.4235898  21.6918668  10.8319011
  10.9144107  20.3489153  10.3532591   5.8267522  26.2767882   9.1892778
   5.7121038  25.3753140   9.4899877   4.9712040  26.5231579   8.8377595
  12.9059360  34.2185623  10.7880279  12.4623214  33.4322001  10.4701183
  13.5676574  34.4064773  10.1224170  15.0040598  34.4988423   8.8161680
  14.9859074  35.3197304   8.3241949  15.9260518  34.3742498   9.0411821
  11.4613652  32.0132552   9.6585188  11.9941989  31.2520840   9.4284496
  10.9327734  31.7206204  10.4009343  17.8059211  29.3367565   2.2871047
  17.1482886  30.0266826   2.3751175  18.6099610  29.7263997   2.6305033
  16.6164670  27.6911938   0.3374989  17.1296552  28.3241930   0.8396698
  17.2665894  27.0913133  -0.0281651  17.3826466  32.6717939  -1.5345869
  16.9288793  31.8308849  -1.4780678  16.7520433  33.3079338  -1.1971089
  15.8259405  34.5094436  -0.5996051  16.1182380  35.0699493  -1.3183685
  16.3358026  34.8022997   0.1557108  14.2358664  25.7558855   7.3878032
  14.5908052  25.9830328   8.2472497  14.8830796  26.0877231   6.7655287
  19.9925781  30.9453817   3.1038632  20.4262288  30.8529107   3.9521686
  20.7057362  30.9211318   2.4658648  13.7253676  34.5455912   4.6371733
  13.7790698  35.1146848   5.4049449  12.8568457  34.7157797   4.2725770
  20.8541331  30.9877518   5.6371518  21.0477221  31.8923329   5.8830793
  20.7541949  30.5284937   6.4710103  12.5077641  20.8735409   8.1361845
  11.8605556  21.5725358   8.0426321  13.2778657  21.3071553   8.5038093
  15.9156439  31.1384261  11.2112398  15.7641946  30.9094813  10.2942482
  15.9061119  32.0954862  11.2243743  12.6841776  28.7116174   6.1958665
  13.6133836  28.8627333   6.0227632  12.2632806  28.8000194   5.3407311
  11.4830107  32.7366838   3.9657202  11.3441193  32.3685622   4.8383140
  10.6944704  33.2514477   3.7941160  13.0335323  32.1148441   1.3546040
  12.6985155  32.0749211   2.2503690  12.5339268  31.4493157   0.8816450
   7.0079567  27.5216071   6.8798621   6.8699364  26.7896310   7.4810160
   7.9184490  27.4324971   6.5982809   9.6361867  27.2336030   6.3682301
  10.3461486  26.5929222   6.3268919   9.5931175  27.4848925   7.2908482
  17.6248646  34.1703383   9.2888880  17.5661192  33.4862604   8.6219463
  18.0268164  34.9122373   8.8369506   8.3490801  24.2201248   8.1877940
   7.8128158  23.7691986   8.8399537   7.7607510  24.3547157   7.4448405
  17.6266053  32.1342967   7.5202860  16.7392832  31.7968889   7.6429259
  18.1964604  31.4025999   7.7571625  11.1567207  36.7944420   4.4864103
  11.0837378  37.5999391   4.9983408  10.7144600  36.9936386   3.6612124
  22.1083394  27.5451185   2.2819421  22.0973270  28.4275900   1.9113355
  21.2400773  27.1922736   2.0873958  13.6165890  36.6931254   6.6422262
  14.3293862  37.3278719   6.5698163  13.1255919  36.7895120   5.8262263
   8.6677804  34.4425697   7.4627832   9.3687263  35.0762180   7.6157227
   8.1972919  34.7840429   6.7023472  16.4679090  26.9970305   5.2880383
  15.8150540  27.2446212   4.6332836  16.8459469  26.1834443   4.9542860
  12.5166663  27.7390116  11.7746420  11.8407300  27.6384245  12.4448795
  13.3394296  27.5829329  12.2382417  11.2589445  39.0457043   6.0104036
  11.8107753  39.2088665   6.7753121  11.5995639  39.6361481   5.3384061
   5.7106211  23.4655325  10.2598955   6.3378250  23.0832403  10.8736479
   4.8534130  23.2469527  10.6254647  16.1100320  33.8718301  11.8652690
  16.6540224  34.4848259  11.3707645  15.5287165  34.4297879  12.3819703
  14.3957833  36.9939019   2.9967718  14.2708972  36.1928759   2.4878664
  15.0536924  37.4885212   2.5081688  16.4592741  34.7948039   4.6247268
  15.5123077  34.6753390   4.5525595  16.8075514  33.9070537   4.7073530
   8.8192314  20.6842178   8.4485510   9.3426716  20.9304474   9.2111819
   8.6004648  21.5162212   8.0288647  13.4639174  34.5900755   0.8251620
  13.3164137  33.6617462   1.0059190  14.2892668  34.6120846   0.3408696
  17.0673296  35.4129314   1.9116493  17.9919844  35.2072175   1.7740944
  16.8988600  35.1645715   2.8205835  11.9122424  22.8264194   4.4888499
  11.6540202  23.7481265   4.4872830  11.3807464  22.4294629   5.1788963
  16.8568612  35.9314981  -2.7321415  17.0305490  35.3661404  -3.4847563
  17.3497504  36.7315876  -2.9141925   2.6745572  27.9429650   5.3342143
   2.1299040  28.7189458   5.4662418   3.5524922  28.2900455   5.1761265
  22.7108004  28.6951404  -1.1131116  23.1539150  27.9458729  -1.5111992
  21.8334514  28.6861540  -1.4957384   3.4611594  27.0699547   8.2272300
   2.7193330  27.2182182   8.8136931   3.1404338  27.3307812   7.3639050
  19.7435208  32.6981451  -4.1037186  20.2686532  33.0368724  -4.8287866
  19.6557561  31.7628466  -4.2874052  11.4055257  36.6115525   8.0252690
  11.7142383  36.3664672   8.8975390  12.2030739  36.8162163   7.5371560
   8.9474268  22.7873231  11.9212875   8.9962424  23.6635354  11.5390644
   9.4896783  22.2450625  11.3484518  19.4329114  33.3314355  11.2014012
  18.6424658  33.3138494  10.6618511  19.1962469  33.8702648  11.9563048
  19.5526989  30.1806821   8.5146740  19.6024994  30.0156829   9.4562263
  19.4440913  29.3134080   8.1244621  16.8430752  26.1637749   9.8306047
  17.7440614  26.0244214   9.5390045  16.9178726  26.3292204  10.7704224
  11.1773557  23.5404604   8.6759233  10.3076866  23.8338170   8.4041822
  11.4133037  24.1245049   9.3966497  21.0545186  32.6003763   8.7588762
  20.7629994  32.9633743   9.5952223  20.4417317  31.8870771   8.5802094
  22.2540868  30.1656642   1.2791332  23.0887760  30.6046446   1.4428892
  22.3899997  29.6895296   0.4599578  19.3032374  27.7236377   7.2268820
  19.7786496  27.9164024   6.4187671  18.3797940  27.7795563   6.9812203
  13.8812591  19.7584221   6.1924654  14.3994535  20.4945248   5.8671142
  13.5267724  20.0648214   7.0271413  18.0034043  24.6002137   5.4597125
  18.9551466  24.7000235   5.4809349  17.8337494  23.8080406   5.9695210
  16.0248423  21.6857721   5.6456526  15.4298355  21.9662733   4.9503015
  15.7398119  22.1751621   6.4173267  20.4822121  27.8208257   4.5739425
  20.4498441  26.8824258   4.7599109  21.0922745  27.8992294   3.8405250
  20.6316610  24.6119300   4.6197708  20.1155658  23.8277757   4.4327637
  21.5156558  24.2838017   4.7844228  26.2998671  28.8824264   3.7145462
  27.0302059  28.6209552   4.2753165  25.6905616  28.1452986   3.7547530
  24.3813968  27.0232126   4.3119913  23.6547132  26.8888091   3.7036404
  23.9661255  27.3308955   5.1176631  12.2044144  30.7422056  12.0767286
  13.1247154  30.9200655  12.2707332  12.1693727  29.7978101  11.9246985
   5.2006217  28.6523091   4.7190067   5.4192227  29.5840199   4.7378101
   5.6131991  28.2931065   5.5044871  10.0734082  24.2256297  14.1092816
   9.9730809  25.1750654  14.0404907   9.8555624  23.8974535  13.2368886
   9.9365352  27.6553435  12.9257878   9.4532434  28.4553796  13.1321767
  10.0226291  27.6661380  11.9725322   5.8638690  31.5457970   4.9626311
   6.8181943  31.5141912   4.8956243   5.6651213  31.0848594   5.7776537
   6.4538072  30.1159086   7.5297109   7.2730961  30.6103165   7.5531946
   6.7274880  29.1991054   7.5014677  21.9991763  23.2443979   1.6653345
  22.5936254  23.0039715   0.9546653  22.0718347  22.5251109   2.2926881
  24.3062836  26.5510179   0.4396766  23.7462394  26.6203369   1.2128328
  23.7006339  26.3751164  -0.2803738   1.7072986  24.4497220   8.2289306
   2.3531850  23.9396174   8.7176531   1.4990137  25.1865902   8.8032731
  14.2326378  31.5178067  13.7281447  15.1017538  31.6918720  13.3668082
  13.7533130  32.3372484  13.6057176   8.4012559  38.6375168   5.4070880
   9.3039805  38.6698779   5.7237375   8.1749929  37.7075619   5.4217216
   6.0470477  21.5964837  12.3264320   6.9101939  21.2401642  12.5367645
   5.4735888  21.2578732  13.0139725  25.8918854  43.2266693   3.1326721
  26.5297264  43.1073441   2.4290061  25.7739697  44.1747537   3.1914674
  22.7008560  43.1794122   3.0688246  22.3627072  43.0635186   2.1808781
  23.5698329  42.7785287   3.0489252  23.1828343  44.3328973   9.0274452
  23.1716984  43.9381772   8.1554955  23.3448983  43.5995046   9.6208223
  19.9035605  47.1166085   7.9753636  19.6125471  48.0211716   7.8600302
  20.5392589  47.1582613   8.6897705  20.8291811  44.4942934   4.5654995
  21.4255384  44.2698956   3.8511958  20.8866783  43.7527679   5.1680443
  28.3693970  34.6014955   5.5707517  28.0377295  35.4710366   5.3468732
  27.7739583  34.2851239   6.2501547  24.8625490  46.8027501   4.9703429
  24.5626213  47.7052539   4.8619237  24.5176549  46.5359684   5.8224582
  18.3137971  43.2541297   1.0040134  17.3888468  43.1217512   1.2117825
  18.5622384  44.0335517   1.5010076  28.2622633  39.3210041   2.6500867
  27.3539511  39.2525449   2.3559628  28.2110229  39.7981986   3.4782692
  22.3363499  40.7399686  10.5935764  21.5596833  41.2993606  10.5838629
  22.9754062  41.2256469  11.1150634  30.1284280  37.5226479   4.4278741
  29.4858660  37.8159012   3.7818535  29.6239208  37.4079400   5.2331937
  20.5909872  43.5485140  10.1553731  21.3324556  44.0870184   9.8788555
  19.8846857  44.1751428  10.3125283  26.0665211  45.6914280   8.7525892
  26.4748567  45.2496691   8.0080525  25.3442473  45.1166908   9.0060085
  22.4196281  40.6286887   6.1259449  23.2657476  41.0526301   6.2694098
  22.3594919  39.9720511   6.8198012  25.5695727  38.2891255   7.7840623
  25.3256658  39.0433316   7.2474899  25.8455657  38.6676603   8.6187870
  27.5234189  44.8329868   6.4617889  27.7351085  45.4761628   5.7852270
  27.4763938  43.9992184   5.9939819  25.1260418  37.4447688   3.3654461
  24.2644897  37.7428942   3.6571198  25.1522853  37.6618087   2.4335493
  18.8346069  45.5361360   2.7108030  19.4047426  45.9648629   2.0725514
  19.4254181  45.2543945   3.4092215  19.3271235  40.7024788  10.9569041
  18.6969896  41.3841069  11.1904438  19.2207323  40.5907870  10.0122179
  22.4036621  47.2585866   6.7900956  22.4681053  47.7206274   7.6259128
  21.6947545  46.6283231   6.9183266  12.9053911  40.6227074   4.3149956
  13.1561949  41.5074084   4.5807532  13.4413459  40.4431676   3.5425048
  18.6051978  35.0045554  13.3194292  18.2118924  34.4511752  13.9941936
  19.4218118  35.3156132  13.7100809  21.5219939  36.4203433  10.9114549
  22.2629652  37.0210586  10.8319011  21.7537862  35.6781071  10.3532591
  16.6661277  41.6059800   9.1892778  16.5514792  40.7045057   9.4899877
  15.8105795  41.8523497   8.8377595  23.7453115  49.5477540  10.7880279
  23.3016969  48.7613919  10.4701183  24.4070328  49.7356691  10.1224170
  25.8434353  49.8280340   8.8161680  25.8252828  50.6489221   8.3241949
  26.7654273  49.7034416   9.0411821  22.3007407  47.3424470   9.6585188
  22.8335744  46.5812758   9.4284496  21.7721488  47.0498122  10.4009343
  25.4677102  32.4484536   5.1878830  25.1241371  33.3386177   5.1117941
  25.8356065  32.2586193   4.3248415  23.0174496  37.2842848  -1.2463496
  22.1616092  36.8949698  -1.4257858  23.4301447  37.3634808  -2.1063711
  24.5473642  34.8189191   3.1528063  24.0438438  34.7819326   2.3395869
  24.8404249  35.7281934   3.2124720  20.7916528  34.9027921   2.1594245
  21.6569525  34.7070729   1.8000135  20.8594037  34.6738272   3.0863602
  18.3978847  37.1330129  -0.4689388  18.9722599  36.9105310  -1.2016195
  18.9849830  37.2018823   0.2839213  20.7001515  34.0071377  -1.7414319
  20.0465927  33.6920395  -2.3657704  20.6581989  33.3847118  -1.0154496
  23.9339255  40.4953311   2.5833329  23.0161817  40.7168258   2.4255017
  24.3499399  40.5699621   1.7245036  27.2664768  31.7078095   0.2896568
  27.5723644  30.8475458   0.0022483  27.9917372  32.2995715   0.0895562
  21.5385847  42.0031888   0.7972759  21.5934457  41.0505724   0.7215236
  20.7277049  42.1591327   1.2814057  19.4778207  40.6208948  -1.4436862
  18.6646073  40.9203118  -1.0371670  19.9737201  40.2264637  -0.7262380
  25.0752419  41.0850772   7.3878032  25.4301807  41.3122245   8.2472497
  25.7224550  41.4169149   6.7655287  18.9692282  38.1927303   4.1724373
  19.6091661  38.0516062   3.4747336  18.1369813  37.9061817   3.7962975
  17.4445824  39.5765385   6.1196184  18.1168877  39.3682748   5.4708833
  16.6175610  39.3787471   5.6801416  23.3471396  36.2027326   8.1361845
  22.6999311  36.9017276   8.0426321  24.1172411  36.6363470   8.5038093
  26.7550194  46.4676179  11.2112398  26.6035700  46.2386730  10.2942482
  26.7454873  47.4246780  11.2243743  23.5235530  44.0408091   6.1958665
  24.4527590  44.1919251   6.0227632  23.1026560  44.1292112   5.3407311
  22.3223862  48.0658756   3.9657202  22.1834948  47.6977540   4.8383140
  21.5338458  48.5806395   3.7941160  17.8473321  42.8507988   6.8798621
  17.7093119  42.1188227   7.4810160  18.7578244  42.7616889   6.5982809
  20.4755622  42.5627948   6.3682301  21.1855240  41.9221140   6.3268919
  20.4324930  42.8140843   7.2908482  28.4642400  49.4995301   9.2888880
  28.4054946  48.8154521   8.6219463  28.8661919  50.2414291   8.8369506
  19.1884556  39.5493166   8.1877940  18.6521913  39.0983904   8.8399537
  18.6001264  39.6839074   7.4448405  28.4659808  47.4634885   7.5202860
  27.5786586  47.1260807   7.6429259  29.0358359  46.7317916   7.7571625
  14.9223677  38.6849173   5.2730935  14.8381866  38.0774843   4.5381345
  14.1006383  39.1758192   5.2740431  25.0947391  37.1702737   0.6401130
  25.5916090  36.4172699   0.3202200  24.3234372  37.2067054   0.0744339
  21.6782359  39.3120120   0.3672815  21.3080147  38.7591160   1.0553720
  22.1741452  38.7078253  -0.1852185  19.5071558  49.7717615   7.4627832
  20.2081018  50.4054098   7.6157227  19.0366673  50.1132346   6.7023472
  27.5366386  34.1372330   2.7880489  26.6229465  34.3676557   2.9562696
  27.9659487  34.2210774   3.6394521  27.3072844  42.3262222   5.2880383
  26.6544294  42.5738130   4.6332836  27.6853224  41.5126361   4.9542860
  23.3560417  43.0682033  11.7746420  22.6801054  42.9676163  12.4448795
  24.1788051  42.9121247  12.2382417  17.0747693  36.7224111   6.6125921
  17.1389020  37.5838942   6.2003318  17.0114813  36.1098112   5.8798279
  16.5499966  38.7947243  10.2598955  17.1772004  38.4124320  10.8736479
  15.6927885  38.5761445  10.6254647  26.9494074  49.2010218  11.8652690
  27.4933978  49.8140177  11.3707645  26.3680919  49.7589797  12.3819703
  16.8559755  38.6779669   2.1744858  16.1346341  39.2915637   2.0352332
  17.6453011  39.2137434   2.0961504  19.6586069  36.0134095   8.4485510
  20.1820471  36.2596392   9.2111819  19.4398402  36.8454130   8.0288647
  20.8638614  36.9547790   6.1335181  20.5235434  36.1555604   6.5355860
  20.1577620  37.2549501   5.5612014  21.5155086  34.0397103   4.5862504
  22.3381155  33.5657581   4.4641394  21.7593149  34.8187587   5.0861190
  19.0393665  40.7316224   2.3954482  18.8938245  41.0456527   3.2878764
  18.5618868  41.3501124   1.8425381  20.8990047  37.7218772   2.4435372
  20.8851616  36.8259865   2.1067670  21.6162476  37.7289435   3.0773658
  22.7516178  38.1556112   4.4888499  22.4933956  39.0773182   4.4872830
  22.2201219  37.7586546   5.1788963  13.5139327  43.2721568   5.3342143
  12.9692795  44.0481376   5.4662418  14.3918677  43.6192372   5.1761265
  20.3026943  36.6033152  -2.2877058  20.4242855  35.6749798  -2.0886171
  20.0128986  36.6171838  -3.1998743  23.1718134  34.2888062   0.8489662
  23.1939831  34.3527395  -0.1058359  23.5886193  33.4492571   1.0430168
  14.3005349  42.3991464   8.2272300  13.5587085  42.5474100   8.8136931
  13.9798093  42.6599730   7.3639050  22.2449011  51.9407442   8.0252690
  22.5536138  51.6956589   8.8975390  23.0424493  52.1454081   7.5371560
  19.7868023  38.1165149  11.9212875  19.8356178  38.9927272  11.5390644
  20.3290537  37.5742542  11.3484518  30.2722869  48.6606272  11.2014012
  29.4818412  48.6430411  10.6618511  30.0356223  49.1994566  11.9563048
  30.3920744  45.5098739   8.5146740  30.4418749  45.3448746   9.4562263
  30.2834667  44.6425998   8.1244621  27.6824506  41.4929667   9.8306047
  28.5834369  41.3536132   9.5390045  27.7572481  41.6584122  10.7704224
  22.0167311  38.8696522   8.6759233  21.1470621  39.1630088   8.4041822
  22.2526792  39.4536967   9.3966497  31.8938940  47.9295680   8.7588762
  31.6023749  48.2925661   9.5952223  31.2811072  47.2162689   8.5802094
  30.1426129  43.0528295   7.2268820  30.6180250  43.2455941   6.4187671
  29.2191694  43.1087481   6.9812203  24.7206345  35.0876138   6.1924654
  25.2388289  35.8237165   5.8671142  24.3661478  35.3940132   7.0271413
  24.9718939  31.5076421   1.7125550  25.2520693  30.8399610   2.3385977
  25.7569546  31.7005517   1.2000214  28.8427798  39.9294055   5.4597125
  29.7945221  40.0292153   5.4809349  28.6731248  39.1372324   5.9695210
  26.8642177  37.0149638   5.6456526  26.2692109  37.2954651   4.9503015
  26.5791874  37.5043539   6.4173267  31.4710364  39.9411218   4.6197708
  30.9549413  39.1569675   4.4327637  32.3550313  39.6129935   4.7844228
  29.1321091  33.6852234   0.5793521  28.9345912  33.3767322   1.4636853
  29.7420797  34.4113873   0.7091451  23.0437899  46.0713974  12.0767286
  23.9640908  46.2492573  12.2707332  23.0087482  45.1270019  11.9246985
  16.0399971  43.9815008   4.7190067  16.2585981  44.9132116   4.7378101
  16.4525745  43.6222983   5.5044871  22.9604189  34.4883094  -3.2934245
  22.1504918  34.1430179  -2.9178998  23.6488606  34.1790638  -2.7046633
  24.8894738  33.5661141  -1.6709948  25.4425776  33.9856594  -1.0119925
  25.1264824  32.6396889  -1.6286992  20.9127837  39.5548214  14.1092816
  20.8124564  40.5042571  14.0404907  20.6949379  39.2266453  13.2368886
  26.7177111  35.0766723   0.0390037  27.2176889  35.1883258  -0.7695644
  27.3612719  34.7727776   0.6790845  20.7759107  42.9845353  12.9257878
  20.2926189  43.7845713  13.1321767  20.8620046  42.9953298  11.9725322
  16.7032444  46.8749888   4.9626311  17.6575698  46.8433830   4.8956243
  16.5044968  46.4140512   5.7776537  17.2931826  45.4451004   7.5297109
  18.1124715  45.9395082   7.5531946  17.5668634  44.5282972   7.5014677
  12.5466741  39.7789138   8.2289306  13.1925604  39.2688092   8.7176531
  12.3383892  40.5157819   8.8032731  25.0720133  46.8469985  13.7281447
  25.9411293  47.0210637  13.3668082  24.5926884  47.6664402  13.6057176
  24.8822471  30.6371959  -1.7640861  24.1154866  30.0830446  -1.6184178
  25.2933176  30.7093828  -0.9026709  16.8864232  36.9256755  12.3264320
  17.7495693  36.5693560  12.5367645  16.3129642  36.5870650  13.0139725
  29.4445732  50.3337471  13.3194292  29.0512678  49.7803670  13.9941936
  30.2611873  50.6448050  13.7100809  32.3613693  51.7495351  10.9114549
  33.1023407  52.3502504  10.8319011  32.5931616  51.0072988  10.3532591
  27.3893720  54.1239161  10.2598955  28.0165759  53.7416238  10.8736479
  26.5321639  53.9053363  10.6254647  30.6261777  53.4457067  11.9212875
  30.6749933  54.3219190  11.5390644  31.1684292  52.9034460  11.3484518
  31.7521591  54.8840132  14.1092816  31.6518318  55.8334489  14.0404907
  31.5343133  54.5558371  13.2368886  27.7257986  52.2548672  12.3264320
  28.5889448  51.8985477  12.5367645  27.1523397  51.9162567  13.0139725
  26.9494076  26.2072341  -1.4102003  27.4933979  26.8202299  -1.9047048
  26.3680920  26.7651919  -0.8934990  30.2722870  25.6668395  -2.0740682
  29.4818414  25.6492534  -2.6136182  30.0356224  26.2056689  -1.3191645
  31.8938942  24.9357803  -4.5165932  31.6023750  25.2987783  -3.6802471
  31.2811073  24.2224811  -4.6952600  25.0720134  23.8532108   0.4526753
  25.9411294  24.0272760   0.0913388  24.5926886  24.6726525   0.3302483
  29.4445734  27.3399594   0.0439599  29.0512679  26.7865793   0.7187243
  30.2611874  27.6510172   0.4346116  32.3613695  28.7557473  -2.3640145
  33.1023408  29.3564626  -2.4435682  32.5931618  28.0135111  -2.9222102
  27.3893721  31.1301283  -3.0155738  28.0165760  30.7478361  -2.4018214
  26.5321640  30.9115485  -2.6500046  30.6261779  30.4519189  -1.3541819
  30.6749934  31.3281312  -1.7364049  31.1684293  29.9096582  -1.9270176
  31.7521593  31.8902255   0.8338123  31.6518319  32.8396611   0.7650214
  31.5343135  31.5620493  -0.0385807  23.3860496  32.1143178  -5.0465387
  24.0319360  31.6042132  -4.5578162  23.1777648  32.8511860  -4.4721962
  27.7257987  29.2610795  -0.9490373  28.5889449  28.9047600  -0.7387048
  27.1523398  28.9224690  -0.2614969
  56.4352615  56.4352615  56.4352615 109.4712190 109.4712190 109.4712190
