default_name
   300
 144.6741722 -39.1205632  76.4760411 145.2698425 -39.9753399  76.1556760
 146.2449714 -39.9418904  76.6415804 145.4020191 -39.9418908  75.0742374
 144.5850000 -41.2930000  76.5240000 143.5010000 -41.2920000  77.1070000
 144.7340000 -41.7150000  75.2730000 145.6359217 -41.6516258  74.8228664
 143.6110000 -42.2340000  74.5010000 142.6920000 -42.1570000  75.0810000
 143.4230000 -41.4210000  73.2180000 144.0898096 -40.5610157  73.2803792
 143.7260263 -42.0553944  72.3850421 142.0050000 -40.9440000  72.9980000
 141.6170000 -39.6630000  73.3710000 142.3480000 -39.0090000  73.8230000
 140.3230000 -39.2210000  73.1730000 140.0420000 -38.2210000  73.4700000
 139.3970000 -40.0630000  72.5950000 138.1070000 -39.6270000  72.3960000
 138.0550000 -38.6930000  72.6530000 139.7560000 -41.3420000  72.2150000
 139.0320000 -42.0030000  71.7630000 141.0540000 -41.7730000  72.4190000
 141.3430000 -42.7710000  72.1250000 143.8300000 -43.7040000  74.1620000
 144.9570000 -44.1960000  74.2100000 142.7470000 -44.3950000  73.8220000
 141.8362017 -43.9610830  73.8695594 142.8260000 -45.7950000  73.4190000
 143.6580000 -46.2820000  73.9260000 141.5450000 -46.5370000  73.8070000
 141.6928414 -47.6029000  73.6335082 141.3491909 -46.3654207  74.8654514
 140.4410000 -46.0830000  73.0430000 139.7500000 -45.8900000  73.6490000
 143.0610000 -45.9060000  71.9170000 142.6600000 -45.0260000  71.1550000
 143.7120000 -46.9890000  71.5040000 144.1420000 -48.0890000  72.3220000
 143.4073939 -48.2169394  73.1170381 145.1047735 -47.8212125  72.7572656
 144.2330000 -49.2780000  71.4310000 143.2836390 -49.8103936  71.3729499
 145.0146189 -49.9644549  71.7565043 144.5860000 -48.6500000  70.1250000
 144.2870901 -49.3194921  69.3184443 145.6357282 -48.3824550  70.0042107
 143.7200000 -47.3890000  70.1020000 144.1660000 -46.6020000  69.4920000
 142.2970000 -47.6180000  69.6030000 141.8510000 -48.7590000  69.4910000
 141.5970000 -46.5280000  69.3070000 141.9694175 -45.6144485  69.5233984
 140.2740000 -46.6090000  68.7000000 140.0850000 -47.6240000  68.3510000
 139.1670000 -46.2450000  69.7070000 138.2750000 -45.9250000  69.1670000
 138.8070000 -47.4510000  70.5610000 138.0230000 -47.1750000  71.2680000
 139.6890000 -47.7850000  71.1090000 138.4500000 -48.2580000  69.9190000
 139.6190000 -45.1820000  70.5550000 140.4230000 -45.4690000  70.9480000
 140.1800000 -45.6760000  67.4970000 139.8280000 -46.1060000  66.3990000
 140.4970000 -44.4040000  67.7150000 140.8984283 -44.1292266  68.6001295
 140.2380000 -43.3680000  66.7220000 139.8080000 -43.8130000  65.8240000
 139.2350000 -42.3470000  67.2620000 139.4933263 -42.1174293  68.2957621
 139.3027407 -41.4401050  66.6611234 137.9120000 -42.8520000  67.2070000
 137.3360000 -42.1090000  67.2020000 141.5350000 -42.6710000  66.3260000
 142.2300000 -42.1150000  67.1760000 141.8490000 -42.7070000  65.0350000
 141.1850000 -43.5070000  64.0430000 140.1861850 -43.0933544  63.9038375
 141.1064359 -44.5198780  64.4379746 142.0100000 -43.4430000  62.8010000
 141.3990654 -43.3526240  61.9028407 142.6750078 -44.3010150  62.7026317
 142.7850000 -42.1960000  63.0600000 142.0865110 -41.3815562  62.8679235
 143.6867516 -42.0483529  62.4657408 143.1410000 -42.2360000  64.5480000
 143.9260000 -42.9320000  64.8430000 143.4730000 -40.8730000  65.1460000
 144.6400000 -40.5630000  65.3840000 142.4410000 -40.0700000  65.3840000
 141.4995998 -40.3927579  65.2116852 142.6280000 -38.7010000  65.8510000
 143.1200000 -38.1080000  65.0800000 141.2770000 -38.0490000  66.1510000
 141.4189890 -37.2911551  66.9214606 140.9081574 -37.5762951  65.2407224
 140.3350000 -39.0080000  66.6000000 139.9490000 -39.3910000  65.8330000
 143.5090000 -38.6770000  67.0950000 144.2570000 -37.7240000  67.3120000
 143.4140000 -39.7280000  67.9030000 142.7931713 -40.4893795  67.6685383
 144.1530000 -39.8000000  69.1580000 144.8290000 -38.9490000  69.2410000
 143.1920000 -39.7520000  70.3480000 143.0774045 -40.7723781  70.7137808
 143.6636488 -39.1413947  71.1179406 141.8330000 -39.1810000  70.0150000
 140.7030000 -39.9890000  69.9970000 140.8110000 -41.0390000  70.2250000
 139.4580000 -39.4730000  69.6940000 138.5930000 -40.1190000  69.6850000
 139.3290000 -38.1320000  69.4040000 138.0910000 -37.6130000  69.1010000
 137.4330000 -38.3210000  69.1810000 140.4360000 -37.3050000  69.4150000
 140.3380000 -36.2540000  69.1880000 141.6770000 -37.8330000  69.7200000
 142.5480000 -37.1940000  69.7310000 144.9910000 -41.0720000  69.2120000
 146.0840000 -41.0770000  69.7790000 144.4720000 -42.1430000  68.6200000
 143.6060337 -42.0653527  68.1060228 145.0970000 -43.4560000  68.7270000
 146.1240000 -43.4110000  68.3660000 145.1350000 -43.9140000  70.1860000
 144.2705008 -43.4995493  70.7046241 145.0859032 -45.0025937  70.2115611
 146.3220000 -43.4800000  70.8260000 146.4740000 -44.0640000  71.5470000
 144.3460000 -44.4760000  67.8770000 143.2960000 -44.9740000  68.2820000
 144.8920000 -44.7770000  66.7040000 145.9860000 -44.0630000  66.1060000
 146.8811513 -44.3648857  66.6497549 145.7935190 -43.0048408  66.2830570
 146.0600000 -44.3920000  64.6540000 147.0724022 -44.6943118  64.3861413
 145.7689512 -43.5285297  64.0558269 145.0920000 -45.5130000  64.4770000
 145.6526250 -46.4457171  64.4150526 144.5051599 -45.3813558  63.5679410
 144.1670000 -45.5420000  65.6960000 143.2430000 -45.0280000  65.4310000
 143.7990000 -46.9210000  66.2340000 144.6170000 -47.5800000  66.8750000
 142.5680000 -47.3450000  65.9680000 141.9185081 -46.7393748  65.4868788
 142.1060000 -48.6640000  66.3820000 142.0150000 -48.7040000  67.4670000
 140.7250000 -48.9920000  65.7840000 139.9660000 -48.3650000  66.2560000
 140.7130000 -48.7170000  64.2880000 139.7280000 -48.9550000  63.8820000
 141.4670000 -49.3370000  63.7990000 140.9360000 -47.6640000  64.1100000
 140.4160000 -50.3720000  66.0150000 140.3980000 -50.4950000  66.9470000
 143.1010000 -49.7370000  65.9550000 143.7250000 -49.6260000  64.8990000
 143.2420000 -50.7690000  66.7800000 142.7874661 -50.7596288  67.6818927
 144.0800000 -51.9130000  66.4400000 144.9360000 -51.5860000  65.8510000
 144.6140000 -52.5810000  67.7090000 145.0094648 -53.5623365  67.4469209
 145.4146717 -51.9644556  68.1175313 143.5900000 -52.7280000  68.6780000
 143.5870000 -51.9420000  69.1930000 143.2950000 -52.9210000  65.6080000
 142.0870000 -53.0770000  65.7900000 143.9890000 -53.5990000  64.6990000
 143.4370000 -54.4810000  63.7080000 143.0831205 -53.8945220  62.8601126
 142.6026707 -55.0329123  64.1408815 144.5850000 -55.3700000  63.3520000
 144.4887943 -55.7824568  62.3476480 144.7110644 -56.1826481  64.0674105
 145.7190000 -54.4040000  63.4380000 145.8392339 -54.0603925  62.4105874
 146.6488369 -54.8587246  63.7796556 145.3520000 -53.2250000  64.3410000
 145.9550000 -53.1060000  65.2410000 145.3620000 -51.8960000  63.5920000
 144.4290000 -51.5910000  62.8490000 146.4190000 -51.1170000  63.7940000
 147.1620089 -51.4226583  64.4060539 146.5230000 -49.7950000  63.1870000
 145.5370000 -49.4470000  62.8790000 147.0800000 -48.7860000  64.1940000
 147.9981226 -48.3590490  63.7904372 146.3451304 -47.9942683  64.3396972
 147.3880000 -49.4140000  65.5380000 148.4180000 -50.0650000  65.7110000
 146.4920000 -49.2210000  66.5000000 145.6520000 -48.6740000  66.3110000
 146.6440000 -49.6190000  67.4260000 147.4110000 -49.8440000  61.9490000
 148.1390000 -50.8150000  61.7390000 147.3450000 -48.7940000  61.1370000
 146.8029228 -47.9843439  61.4029110 148.0020000 -48.7890000  59.8350000
 148.8000000 -49.5310000  59.8170000 147.0050000 -49.1490000  58.7310000
 146.3713369 -48.2764554  58.5721409 147.5810161 -49.3484350  57.8273789
 146.1410000 -50.3470000  59.0520000 145.0710000 -50.2410000  59.9310000
 144.8630000 -49.2830000  60.3840000 144.2770000 -51.3330000  60.2280000
 143.4500000 -51.2290000  60.9140000 144.5500000 -52.5510000  59.6440000
 143.7630000 -53.6410000  59.9380000 143.0050000 -53.3410000  60.4630000
 145.6090000 -52.6850000  58.7670000 145.8240000 -53.6390000  58.3090000
 146.3950000 -51.5860000  58.4770000 147.2250000 -51.6810000  57.7920000
 148.6240000 -47.4250000  59.5550000 149.8060000 -47.3340000  59.2260000
 147.8200000 -46.3750000  59.6900000 146.8438170 -46.5115801  59.9102545
 148.2980000 -45.0130000  59.4830000 149.3870000 -44.9930000  59.5090000
 147.8530000 -44.4920000  58.1150000 147.3133490 -43.5557055  58.2572273
 148.7386332 -44.3113829  57.5057945 147.0130000 -45.4260000  57.4610000
 146.1390000 -45.0820000  57.5000000 147.7850000 -44.0940000  60.5870000
 146.5880000 -43.8220000  60.6670000 148.6990000 -43.6230000  61.4290000
 148.4680000 -42.7360000  62.5360000 147.5329779 -43.0116274  63.0237125
 148.3956618 -41.7139867  62.1640389 149.6550000 -42.9380000  63.4170000
 149.5383107 -43.8136285  64.0555588 149.8507743 -42.0617481  64.0350262
 150.7420000 -43.1360000  62.4140000 151.5166453 -43.6994450  62.9341475
 151.1817278 -42.2470616  61.9617528 150.1010000 -44.0090000  61.3330000
 150.4420000 -43.9210000  60.3010000 150.2870000 -45.4590000  61.7650000
 149.4540000 -46.0080000  62.4870000 151.3810000 -46.0690000  61.3200000
 151.9425411 -45.6354629  60.6011005 151.7860000 -47.3780000  61.8180000
 151.1230000 -48.1480000  61.4230000 153.2220000 -47.7280000  61.3860000
 153.4920000 -48.7080000  61.7810000 153.3240000 -47.7750000  59.8690000
 154.3470000 -48.0240000  59.5810000 153.0570000 -46.8020000  59.4560000
 152.6430000 -48.5340000  59.4820000 154.1300000 -46.7410000  61.8910000
 155.0244933 -46.9609754  61.6206430 151.6980000 -47.4210000  63.3400000
 151.5200000 -48.4880000  63.9260000 151.8250000 -46.2560000  63.9680000
 152.0164985 -45.4166262  63.4399097 151.7410000 -46.1550000  65.4200000
 152.4670000 -46.8240000  65.8830000 152.0600000 -44.7310000  65.8780000
 152.0298191 -44.0706881  65.0112956 151.3041585 -44.4186450  66.5985818
 153.3420000 -44.6630000  66.4790000 153.6300000 -43.7720000  66.4070000
 150.3530000 -46.5630000  65.9040000 149.3530000 -46.2700000  65.2490000
 150.3050000 -47.2360000  67.0480000 151.3870000 -47.7590000  67.8370000
 151.7859690 -46.9747662  68.4803517 152.1762295 -48.1269419  67.1813823
 150.7320000 -48.8540000  68.6080000 151.3271101 -49.1277283  69.4792151
 150.5788126 -49.7333667  67.9824209 149.4280000 -48.2510000  69.0070000
 149.5958394 -47.5905930  69.8577594 148.6258579 -48.9502081  69.2431688
 149.0550000 -47.4260000  67.7740000 148.3200000 -47.9090000  67.1290000
 148.4830000 -46.0830000  68.2140000 147.2770000 -45.9560000  68.4230000
 149.3560000 -45.0900000  68.3500000 150.3387415 -45.2564164  68.1868311
 148.9420000 -43.7590000  68.7780000 147.9430000 -43.8010000  69.2130000
 149.8940000 -43.2190000  69.8460000 149.3357601 -42.5577632  70.5087468
 150.2879822 -44.0585335  70.4187667 150.9670000 -42.5030000  69.2590000
 151.2530000 -43.0020000  68.5150000 148.8940000 -42.8060000  67.5880000
 149.4790000 -43.0850000  66.5410000 148.1960000 -41.6880000  67.7590000
 147.7352835 -41.5100589  68.6400104 148.1262764 -41.0163235  67.0079413
