default_name
 11406
  30.5583772  27.5569868  22.2866470  31.4388608  27.1627715  21.7792586
  31.1284761  26.5778771  20.9134306  31.9995222  26.5270051  22.4645023
  32.3527201  28.2937364  21.3031497  32.0521643  29.4686216  21.5104684
  32.0270161  27.3055161  22.1300999  32.3088851  26.3584890  21.9208418
  31.2243911  27.5399548  23.3248490  30.8874401  28.5766941  23.3496215
  29.9833522  26.6453342  23.3213427  29.3023414  27.0417996  22.5682565
  30.3056921  25.6460031  23.0288801  29.2741680  26.5756653  24.6550068
  29.2729888  25.4053907  25.4025849  29.7902763  24.5396210  25.0157446
  28.6267130  25.3355476  26.6222424  28.6386044  24.4165740  27.1883875
  27.9703582  26.4457926  27.1087075  27.3255974  26.3803823  28.3227034
  26.8780936  27.2269212  28.4791302  27.9557628  27.6220840  26.3845807
  27.4411682  28.4930381  26.7640135  28.6050009  27.6797867  25.1662780
  28.5988463  28.5960431  24.5942418  32.0504240  27.2858365  24.5810013
  32.2651578  28.1955539  25.3826999  32.5072707  26.0479213  24.7418366
  32.3029619  25.3404355  24.0505906  33.2674819  25.6601088  25.9240948
  34.0209153  26.4151469  26.1474206  32.3455568  25.5466455  27.1400504
  31.3122809  25.5208779  26.7939634  32.5748202  24.6205491  27.6671971
  32.5223184  26.6457668  28.0177114  32.5621603  26.2947347  28.8895870
  33.9864815  24.3367839  25.6860278  33.5343262  23.5149925  24.8885822
  35.1016641  24.1409021  26.3816054  35.9293871  25.1515604  26.9793206
  35.4256627  25.5259740  27.8704865  36.0515042  25.9641634  26.2631763
  37.2162572  24.4733839  27.2927069  37.5859560  24.8541981  28.2447586
  37.9327029  24.7077265  26.5053758  36.9568329  23.0064143  27.3568418
  36.6109656  22.7730253  28.3638197  37.7670303  22.3296072  27.0855264
  35.8015003  22.8624152  26.3635665  36.0639923  22.5953315  25.3390865
  34.9119721  21.7570392  26.9217793  34.9086591  20.6378288  26.4096836
  34.1623037  22.0814211  27.9704469  34.2163576  23.0114617  28.3605777
  33.2758011  21.1157388  28.6068743  33.5971371  20.1010910  28.3691391
  33.2864735  21.2635905  30.1400889  34.3076236  21.1610176  30.5082320
  32.7628166  22.6326651  30.5462576  31.7410881  22.7529456  30.1861143
  32.7772354  22.7201133  31.6326480  33.3943311  23.4074338  30.1114893
  32.4616453  20.2490546  30.7272153  32.8742969  19.4237086  30.5460865
  31.8472374  21.2850279  28.0991134  31.4458115  22.3853341  27.7199611
  31.0921410  20.1916062  28.0955939  31.4779977  19.3108457  28.4045843
  29.7178145  20.2117703  27.6106384  29.6984469  20.4758199  26.5530295
  29.0770817  18.8294427  27.7575295  29.7609941  18.1847475  28.3095542
  28.1466228  18.9336820  28.3156337  28.8059745  18.2553366  26.4911836
  28.7155891  18.9665394  25.8823067  28.8990690  21.2518393  28.3680308
  29.1984857  21.5633676  29.5209683  27.8708944  21.7804522  27.7128589
  27.2683634  21.4126775  26.4617989  27.1613930  20.3279656  26.4541976
  27.9493925  21.7156727  25.6665052  25.9573758  22.1176404  26.3865404
  25.1707662  21.4903233  26.8058463  25.7189384  22.3538710  25.3495042
  26.1457298  23.3624662  27.1863888  25.2197500  23.7531022  27.6083651
  26.6630232  24.1570950  26.6487345  27.0389829  22.8214330  28.3042398
  27.6612835  23.6542957  28.6318322  26.2958100  22.2837833  29.5229230
  25.0889997  22.0489924  29.4656850  27.0246573  22.0937971  30.6185323
  27.9568994  22.4779644  30.6771799  26.5332050  21.2989055  31.7370737
  25.7311985  20.6405807  31.4023200  27.6510320  20.4215975  32.3037742
  28.4612174  21.0657939  32.6454024  27.2568251  19.8558176  33.1479271
  28.1427200  19.5246858  31.3226176  28.0879098  19.9679493  30.4958121
  25.9723574  22.2033172  32.8288817  26.3103836  23.3856620  32.8951632
  25.1189040  21.6401237  33.6774801  24.7303252  20.7307124  33.4723535
  24.6834238  22.3199627  34.8912354  24.0359402  21.6645365  35.4742203
  25.8876499  22.6822909  35.7640331  26.3320138  23.5833724  35.3413132
  25.5107489  22.8982614  36.7637342  26.9343902  21.5948399  35.8446187
  26.5697894  20.2579991  35.9459342  25.5207285  20.0052310  35.9650504
  27.5231207  19.2603598  36.0199161  27.2173117  18.2273642  36.0980884
  28.8598550  19.5922561  35.9952499  29.8120381  18.6022025  36.0688586
  30.6341301  18.9342514  35.6746935  29.2506148  20.9141460  35.8954100
  30.2979433  21.1757076  35.8754736  28.2890158  21.9036836  35.8215273
  28.5847018  22.9392335  35.7433527  23.8909101  23.5761202  34.5450034
  22.6614393  23.5750138  34.6074402  24.6025807  24.6376476  34.1812873
  25.5997508  24.5538197  34.0444517  23.9898373  25.9502770  34.0144503
  22.9723201  25.8409518  33.6394521  23.9176918  26.6819322  35.3564592
  23.3072879  26.0945539  36.0423841  24.9266543  26.7757002  35.7580838
  23.3488664  27.9705297  35.2037529  23.6181477  28.2903733  34.3626200
  24.7743363  26.7811009  33.0059886  25.8361730  27.3158030  33.3270768
  24.2448873  26.8842652  31.7910175  23.1581790  26.1266662  31.2334713
  22.2369009  26.5726246  31.6082619  23.2514819  25.1105414  31.6167257
  23.2592080  26.1850855  29.7469908  22.2791209  26.1622079  29.2705404
  23.8750040  25.3785384  29.3490229  23.9258189  27.5066781  29.5587647
  23.1226474  28.2435712  29.5569675  24.5003191  27.5939292  28.6365737
  24.8381648  27.7347495  30.7656808  25.8820905  27.4616115  30.6140866
  24.7927563  29.1971485  31.1927303  23.7651879  29.8590049  31.0466947
  25.9092855  29.6904060  31.7196122  26.7613437  29.1486950  31.6942091
  25.9379475  30.9932085  32.3725212  25.4910084  31.7461059  31.7226075
  25.1449662  30.9813589  33.6922947  24.1546937  30.5593280  33.5172537
  25.8552921  30.1294868  34.7327777  26.8485234  30.5373644  34.9204665
  25.2808757  30.1324085  35.6591342  25.9463114  29.1072606  34.3655317
  25.0133825  32.3199656  34.1860548  24.2037221  32.6582185  33.8472554
  27.3754785  31.4163636  32.6573462  27.7268961  32.5846261  32.4980521
  28.1961985  30.4588094  33.0778313  27.8868346  29.4974034  33.0874151
  29.5327968  30.7597204  33.5758790  29.6394683  31.8329147  33.7323561
  29.7721576  30.0660620  34.9188952  29.2480222  29.1103547  34.9166726
  30.8418419  29.8929401  35.0368124  29.3010895  30.8603829  35.9940994
  29.9169265  31.5609422  36.1068662  30.5895984  30.3257997  32.5658438
  30.8020218  29.1308830  32.3591762  31.2431654  31.3012782  31.9448777
  30.8956214  32.6957073  31.9119890  31.0543626  33.0918000  32.9149905
  29.8369845  32.7590366  31.6602425  31.7631949  33.3538539  30.8921173
  32.1087539  34.3193337  31.2616259  31.2078287  33.4977254  29.9653105
  32.8999622  32.4091769  30.6905049  33.6804474  32.6788050  31.4020121
  33.3133645  32.4072240  29.6819444  32.3432806  31.0250108  31.0290677
  31.9748981  30.4885688  30.1549359  33.3949400  30.1513995  31.7056553
  34.1699016  29.4722866  31.0322905  33.4122748  30.1778696  33.0341650
  32.7867982  30.7920600  33.5358107  34.3163898  29.3322997  33.8048554
  35.3310588  29.7286632  33.7556131  33.8851587  29.2422156  35.2648379
  33.8935869  30.2376670  35.7088026  32.8785683  28.8279616  35.3220177
  34.7901220  28.3950244  35.9777260  34.5186575  28.3383147  36.8967967
  34.3379161  27.9172369  33.2371505  35.3916733  27.2834235  33.1786507
  33.1717155  27.4323750  32.8247163  32.3391055  28.0005571  32.8881913
  33.0427589  26.0716537  32.3186385  33.9722223  25.7627021  31.8395512
  32.7641619  25.0981621  33.4661038  32.8748798  24.0894418  33.0682040
  33.5227063  25.2724541  34.2292111  31.3897621  25.2502018  34.0780794
  31.1752623  26.1096056  35.1481957  32.0108832  26.6709987  35.5395121
  29.9224408  26.2528863  35.7118392  29.7772143  26.9265965  36.5431206
  28.8620707  25.5319882  35.2056189  27.6119738  25.6711849  35.7636146
  27.7164643  25.9596959  36.6840526  29.0470846  24.6700517  34.1425859
  28.2173235  24.1040789  33.7446595  30.3055011  24.5348581  33.5867714
  30.4590367  23.8631484  32.7545108  31.9295229  25.9899184  31.2797550
  32.0652919  25.2981371  30.2710645  30.8350592  26.6990554  31.5368231
  30.7759180  27.2471880  32.3830809  29.6805454  26.6754554  30.6463357
  29.9937059  26.4056141  29.6376702  28.6635583  25.6321390  31.1137639
  28.6370392  25.6343596  32.2034386  27.6816298  25.9039081  30.7263906
  29.0112687  24.3381386  30.6527072  29.7853336  24.4343100  30.1268902
  29.0277446  28.0521894  30.5820267  28.1660576  28.3740233  31.4010808
  29.4439885  28.8541288  29.6076658  30.3171101  28.4571892  28.5371652
  29.9983374  27.4840539  28.1636791  31.3348599  28.3831365  28.9203109
  30.1701342  29.5352994  27.5216454  29.4636725  29.2092191  26.7583090
  31.1401516  29.7236233  27.0615350  29.6763836  30.7475676  28.2390653
  29.0193114  31.2908443  27.5599442  30.4449604  31.4217304  28.6170783
  28.8640647  30.1769943  29.4032244  28.9339818  30.7607016  30.3208694
  27.3894438  30.0616925  29.0322909  26.8400761  28.9610314  28.9908992
  26.7604565  31.2021884  28.7660748  27.2762090  32.0703425  28.7458971
  25.3224663  31.2470648  28.5317689  24.7883829  30.9199864  29.4242585
  24.8488512  32.6744095  28.2000146  25.3217727  33.3822514  28.8816532
  25.2356311  33.0455669  26.7757462  24.7715298  32.3474986  26.0790323
  24.8934408  34.0572260  26.5576848  26.3193503  32.9981950  26.6689323
  23.4248826  32.7528863  28.3401889  23.1136270  33.3176450  27.6555792
  24.9381954  30.3142351  27.3880703  25.7320920  30.0850063  26.4760766
  23.7200477  29.7848389  27.4466776  23.1582298  29.9005470  28.2779848
  23.1767802  28.9920042  26.3499094  23.8720642  28.1948079  26.0857594
  21.8554826  28.3399295  26.7644031  21.3432058  27.9892238  25.8684805
  22.0733714  27.4916485  27.4132820  21.0262117  29.2599195  27.4526925
  20.7389354  29.8939226  26.8209430  22.9669535  29.8607545  25.1147941
  22.0868295  30.7210595  25.0975307  23.7804090  29.6290709  24.0900688
  24.6545421  28.4924051  24.0015077  24.0507063  27.5856970  24.0384253
  25.3351818  28.5099370  24.8526958  25.3648934  28.6536464  22.7034683
  25.1180453  27.7986603  22.0740527  26.4366068  28.6604879  22.9021765
  24.9314292  29.9360367  22.0752057  24.6477231  29.7278489  21.0435722
  25.7081595  30.7005961  22.0906521  23.7110908  30.4157591  22.8634484
  23.8040583  31.4762102  23.0951240  22.3705861  30.2033249  22.1688667
  21.6813040  31.1666546  21.8338199  22.0129596  28.9408161  21.9563301
  22.6597142  28.1921443  22.1595502  20.7141791  28.5974920  21.3882114
  19.9725011  29.3419966  21.6779968  20.7859142  28.5785342  19.8606864
  21.6959221  28.0589988  19.5605733  19.9183124  28.0415147  19.4773104
  20.7976654  29.8942682  19.3335052  21.6918924  30.0997330  19.1294165
  20.2457756  27.2427156  21.9078190  19.1302072  27.1183159  22.4121766
  21.1041533  26.2361912  21.7798756  22.0079708  26.3938599  21.3575526
  20.8526735  25.3136006  22.1049667  24.1407776  29.6085392  58.7923891
  23.4669474  29.9117089  59.4008848  24.5273598  30.4114473  58.4429348
  28.1064516  27.1870876  60.0663714  28.8015421  27.8077569  60.2851028
  28.4487666  26.3366227  60.3416092  28.0464661  26.8935648  57.0651337
  27.9678293  26.5595512  57.9587095  28.8674328  27.3857416  57.0642810
  25.6168613  24.2103643  56.6861316  26.3204463  24.4153646  57.3018971
  24.8931262  24.7780405  56.9510399  28.8607546  30.9470947  56.4492635
  27.9837012  30.8259748  56.0854882  29.3365299  30.1557026  56.1971524
  31.6062855  31.8835334  56.2509745  30.6994310  31.5868447  56.3272459
  31.8838836  31.5865152  55.3844031  30.3761640  28.7422270  56.3921724
  31.2380804  29.0677168  56.6517542  30.5611984  27.9553765  55.8794790
  31.3291083  25.9818313  59.6801433  31.3169752  26.9260153  59.8369704
  32.2214504  25.7988458  59.3860894  24.1407777   6.6147515  45.5169197
  23.4669476   6.9179212  46.1254155  24.5273599   7.4176595  45.1674654
  28.1064518   4.1932998  46.7909020  28.8015422   4.8139691  47.0096335
  28.4487668   3.3428350  47.0661398  28.0464662   3.8997771  43.7896644
  27.9678294   3.5657634  44.6832402  28.8674329   4.3919539  43.7888116
  25.6168614   1.2165766  43.4106622  26.3204464   1.4215769  44.0264278
  24.8931263   1.7842528  43.6755706  28.8216109  13.9780851  51.4818675
  28.2580974  13.8870788  50.7134962  28.7068504  13.1580755  51.9621167
  34.4015667  17.6451819  46.7933140  33.7503647  18.2305899  46.4067153
  35.1960030  18.1758013  46.8528177  28.3271295  14.7340956  47.1920274
  29.1002171  14.1869943  47.0533150  28.6796693  15.5985205  47.4034735
  30.6637572  10.8933622  44.8238724  30.9163093  10.3715143  44.0622187
  29.7262132  10.7299767  44.9265407  35.7080855   9.8969400  52.6313467
  36.4943944   9.4788823  52.2803884  35.9719560  10.8015492  52.7995115
  35.8790933  15.3342250  47.3302124  35.2436766  15.4076877  48.0423028
  35.5488339  15.9235849  46.6521203  30.3833861  12.7961728  47.0263099
  30.2670119  12.1206631  47.6944183  30.4936121  12.3094102  46.2095252
  32.7265402  12.2571875  50.7309788  32.3623609  11.7302496  51.4422709
  33.5832518  11.8670344  50.5576273  32.3670889   7.2861775  45.7271136
  32.5345291   8.1542011  46.0941608  32.1768058   7.4489056  44.8032426
  32.3460110   9.7419432  46.7117803  32.2259735  10.1876483  47.5503284
  31.6512698  10.0904750  46.1531341  30.1067002  22.5123074  50.3607935
  30.0291032  23.4630899  50.4396415  29.5028646  22.1668946  51.0182861
  38.0445176  10.2140905  47.5398137  38.9563032  10.4468292  47.3645835
  37.5354823  10.7977949  46.9773216  36.6514758  15.1966724  54.9311719
  36.0223621  15.3612438  54.2287787  36.2640421  15.6108333  55.7022683
  40.5303990  16.1321162  52.2856083  39.8455028  16.5120063  51.7353116
  40.6147840  16.7416488  53.0188030  32.2042720  14.9341132  52.1961804
  32.6681066  15.2128835  51.4066426  31.9399518  14.0324576  52.0134895
  31.1411606  11.0564284  49.0051369  31.8435650  11.5085328  49.4725295
  30.8092235  10.4148103  49.6331262  32.3805371  17.8705227  49.0813474
  32.2451046  18.7156763  49.5098322  32.9215183  18.0724504  48.3179408
  25.8334768  15.3880665  49.6541399  26.3459289  16.1823915  49.8046964
  26.4857481  14.6906955  49.5875001  27.6429653  18.5046421  51.7364153
  27.8196281  19.4264386  51.5485136  28.4386487  18.1904840  52.1658532
  23.7983685  13.7169319  50.4300970  24.6358907  14.1266327  50.2134678
  23.9761953  12.7768761  50.4001164  35.6948117  11.3844400  46.1184803
  35.1794741  12.1549004  46.3573190  35.4225426  10.7109536  46.7417864
  40.6682391  14.1376754  48.0537976  39.8911834  13.7987914  47.6093138
  41.3473872  14.1429378  47.3792941  35.4834420   9.2571492  47.9444584
  35.1784556   9.5717641  48.7954727  36.4364863   9.3352912  47.9871917
  33.9280852  15.4161715  49.5937538  33.4002214  14.6814475  49.2810775
  33.4268355  16.1936392  49.3477506  37.7179157  11.9655108  52.7608526
  38.2311039  12.5985100  53.2630236  38.3680381  11.3656304  52.3951886
  28.9869167   8.1085843  45.9740035  28.1506479   8.4460529  46.2949310
  28.8473937   7.9734822  45.0367172  32.0733452  13.2341925  42.5972511
  31.1660514  13.0031179  42.7963660  32.5704484  12.4379545  42.7846493
  34.9801531  21.9439433  45.5169197  34.3063230  22.2471129  46.1254155
  35.3667353  22.7468513  45.1674654  34.9795036  10.8395980  50.1369547
  35.7266855  11.3517377  49.8276669  35.2486625  10.5180032  50.9973940
  33.2521686  13.3354520  47.1196501  32.3432905  13.0513553  47.2168971
  33.2816770  13.7553599  46.2599808  38.4840953  16.9461110  50.8887669
  38.0303280  16.1052020  50.9452859  37.8534920  17.5822508  51.2262449
  37.4273873   7.8753096  52.1188336  36.6896630   7.3630482  52.4498579
  37.6800646   7.4353477  51.3071613  36.9273893  18.7837607  51.8237487
  37.2196867  19.3442664  51.1049852  37.4372513  19.0766168  52.5790646
  32.9497774  14.8763264  44.4584580  32.5117204  14.1599123  43.9990217
  33.6908215  15.1039379  43.8969671  31.8907518  19.5617958  52.9130940
  31.8483697  19.7878804  51.9839472  32.8070217  19.3281332  53.0616741
  41.0670888  13.1520461  50.5160898  40.9288787  13.3422057  49.5882088
  40.7107107  13.9139844  50.9728949  30.0073319  16.4380987  52.7092903
  30.8013917  15.9431307  52.5075478  29.2965011  15.9098850  52.3460608
  34.8268163  18.8199082  57.0605270  34.8805185  19.3890018  57.8282986
  33.9582944  18.9900967  56.6959308  26.3156082  10.5824068  48.7852655
  25.3853670  10.5208524  49.0022618  26.4113554  10.0600021  47.9889297
  33.1792746  22.1119105  47.7316276  33.3544502  21.6407148  48.5461899
  32.4925535  22.7384871  47.9597537  34.1349810  16.3891611  53.7779578
  33.7999642  16.3492381  54.6737228  33.6353755  15.7236327  53.3049988
  37.0709001  13.7347646  44.0516637  36.4538172  13.0094474  43.9549690
  36.6025490  14.4957006  43.7083712  27.7453832  25.2608468  54.5056137
  27.9850430  25.8926992  55.1835155  26.9023028  24.9096508  54.7921496
  28.8607547   7.9533070  43.1737942  27.9837014   7.8321871  42.8100188
  29.3365300   7.1619148  42.9216830  32.2581694  21.0687590  56.9097641
  32.1851865  21.8742562  57.4216945  31.8159087  21.2679556  56.0845662
  32.0471473  20.3059360  50.4200462  31.2638995  20.8481040  50.5138687
  32.7464218  20.8233340  50.8194703  34.7180377  20.9674424  59.0655799
  35.4308349  21.6021889  58.9931701  34.2270406  21.0638290  58.2495801
  36.4397904  14.8725677  50.6373091  35.5054183  14.9927139  50.4677795
  36.6174573  13.9698144  50.3733101  39.8270455  10.7142996  51.1723125
  40.2930908  11.5470988  51.0983428  40.2777956  10.2487978  51.8768384
  37.8946687  17.0586818  48.1709277  38.1706530  16.9443412  49.0803151
  37.0251185  16.6604302  48.1321450  34.5300751  21.3073168  51.8142091
  34.7123145  20.4894824  52.2769843  35.3533737  21.5240861  51.3766981
  34.8642916  20.2341354  49.0757139  35.3930682  19.7233808  48.4627301
  35.1271136  19.9183884  49.9402672  28.2198664  21.2856470  51.8354915
  27.5509039  21.7702598  51.3518955  28.0811534  21.5325691  52.7498294
  32.3603933  23.3200214  58.4337573  32.9122241  23.4831835  59.1986659
  32.7010126  23.9104652  57.7617598  35.4972320  21.2682189  55.4201256
  35.3723459  20.4671929  54.9112201  36.1551411  21.7628383  54.9315226
  37.5607228  19.0691209  57.0480806  36.6137564  18.9496561  56.9759132
  37.9090001  18.1813707  57.1307067  34.5653662  18.8643926  53.2485158
  34.4178624  17.9360633  53.4292728  35.3907155  18.8864016  52.7642233
  28.4315906   7.5161993  49.1065650  28.7711978   8.0447914  48.3844258
  28.8788026   7.8542399  49.8824217  38.1687783  19.6872484  54.3350031
  39.0934331  19.4815346  54.1974482  38.0003087  19.4388885  55.2439372
  30.4184053   6.0136614  47.3058943  31.1392415   6.3917867  46.8022660
  29.7949357   6.7325491  47.4093921  34.5615176   6.7181763  48.2417275
  34.7778790   7.6006401  47.9406103  34.0809243   6.3267977  47.5122917
  37.9583100  20.2058152  49.6912122  38.1319977  19.6404574  48.9385975
  38.4511991  21.0059047  49.5091612  38.9458272  19.5224916  46.7909020
  39.6409177  20.1431609  47.0096335  39.2881422  18.6720267  47.0661398
  40.8449695  16.9724622  48.3196351  41.3701019  17.3111894  47.5945671
  40.7572048  16.0371637  48.1359486  32.5290356  23.0396605  52.6791604
  32.0895346  22.5472984  53.3724461  33.2798473  22.4969573  52.4383680
  25.0082695  19.2308146  52.6816232  25.8340715  18.9311918  52.3014876
  24.6576747  18.4615768  53.1306021  29.9764228  18.5834614  54.7513906
  29.3544237  17.9205319  54.4516134  30.6469095  18.6095746  54.0687554
  29.5377735  17.1338537  48.2272367  29.6865855  17.8174002  47.5739039
  30.3444178  17.1143627  48.7421822  27.2930368  13.1603715  49.2333435
  27.0476410  12.2566045  49.4313646  27.4626283  13.1620865  48.2912913
  26.5626016   8.8932073  46.7319597  25.8695260   8.9676428  46.0759633
  26.3177767   8.1292416  47.2541114  33.0373141  19.6286668  45.6984114
  32.4647108  20.2476855  45.2454586  33.6105934  20.1786030  46.2324036
  36.2570400  19.9123818  46.8292696  37.1901073  19.8469380  47.0325572
  36.1693613  20.7480085  46.3707229  38.8858417  19.2289688  43.7896644
  38.8072049  18.8949552  44.6832402  39.7068084  19.7211456  43.7888116
  33.4219939  10.9647481  43.0400166  34.3679044  10.8353689  43.1088585
  33.0434184  10.2262142  43.5169595  31.6062856   8.8897457  42.9755052
  30.6994312   8.5930570  43.0517765  31.8838837   8.5927275  42.1089338
  30.3761641   5.7484392  43.1167031  31.2380805   6.0739291  43.3762848
  30.5611985   4.9615888  42.6040097  37.3119155   6.7813009  49.3158602
  36.4245010   7.0662660  49.0978797  37.7273144   6.6206772  48.4685879
  25.3203406  21.3620760  54.4030047  25.1857874  20.6021161  53.8368045
  24.9035468  22.0861660  53.9358836  36.4562369  16.5457684  43.4106622
  37.1598219  16.7507686  44.0264278  35.7325018  17.1134446  43.6755706
  37.2860179  12.2967545  49.5308892  37.2295380  12.7536096  48.6916525
  37.8388522  11.5358230  49.3531735  28.4772532  22.2590077  54.6148490
  28.3604916  23.2035510  54.5127180  27.6564978  21.9563639  55.0034289
  38.3649066  16.9840213  45.4605082  39.1994670  16.5521411  45.2782557
  38.2033409  16.8122227  46.3881977  38.0194958  13.4872326  46.8261422
  37.9643762  13.3216598  45.8849866  37.3941014  14.1948359  46.9823611
  31.3291084   2.9880435  46.4046740  31.3169754   3.9322275  46.5615011
  32.2214506   2.8050581  46.1106201  29.5027046  22.9118339  57.8304418
  30.4054292  22.9441949  58.1470913  29.2764416  21.9818790  57.8450754
  31.2580648  21.6649326  54.4914497  30.3076279  21.6651187  54.3778869
  31.5613134  20.9182060  53.9750531  39.6609863  29.3072769  51.4818675
  39.0974728  29.2162705  50.7134962  39.5462258  28.4872673  51.9621167
  45.2409422  32.9743736  46.7933140  44.5897402  33.5597817  46.4067153
  46.0353785  33.5049931  46.8528177  39.1665049  30.0632873  47.1920274
  39.9395925  29.5161860  47.0533150  39.5190448  30.9277123  47.4034735
  41.5031327  26.2225540  44.8238724  41.7556848  25.7007061  44.0622187
  40.5655886  26.0591685  44.9265407  46.5474610  25.2261318  52.6313467
  47.3337699  24.8080741  52.2803884  46.8113314  26.1307410  52.7995115
  46.7184687  30.6634168  47.3302124  46.0830520  30.7368795  48.0423028
  46.3882094  31.2527767  46.6521203  41.2227616  28.1253645  47.0263099
  41.1063874  27.4498549  47.6944183  41.3329876  27.6386019  46.2095252
  43.5659157  27.5863793  50.7309788  43.2017364  27.0594414  51.4422709
  44.4226273  27.1962262  50.5576273  43.2064644  22.6153692  45.7271136
  43.3739046  23.4833929  46.0941608  43.0161813  22.7780974  44.8032426
  39.4152458  27.5284468  53.4273671  38.4902955  27.3960682  53.6351363
  39.6636871  28.3078687  53.9243614  43.1853864  25.0711350  46.7117803
  43.0653490  25.5168401  47.5503284  42.4906453  25.4196667  46.1531341
  36.7761269  27.1717742  54.2617460  36.9053650  27.4252220  55.1756872
  36.0958721  27.7645450  53.9422115  48.8838931  25.5432823  47.5398137
  49.7956787  25.7760210  47.3645835  48.3748578  26.1269867  46.9773216
  43.0436475  30.2633049  52.1961804  43.5074820  30.5420752  51.4066426
  42.7793273  29.3616494  52.0134895  41.9805361  26.3856202  49.0051369
  42.6829404  26.8377246  49.4725295  41.6485989  25.7440021  49.6331262
  35.7230695  24.6439754  54.3068503  34.9329749  24.8997283  53.8308613
  36.2141942  25.4588092  54.4120543  37.6745440  25.0084334  51.2651979
  36.8776603  25.1203028  51.7835475  37.4471032  25.3470986  50.3992870
  34.0068398  24.8970245  56.7383493  34.2576436  25.7817255  57.0041069
  34.5427946  24.7174846  55.9658585  43.2199125  33.1997144  49.0813474
  43.0844800  34.0448680  49.5098322  43.7608938  33.4016422  48.3179408
  36.6728523  30.7172582  49.6541399  37.1853043  31.5115833  49.8046964
  37.3251236  30.0198873  49.5875001  38.4823408  33.8338339  51.7364153
  38.6590036  34.7556303  51.5485136  39.2780241  33.5196758  52.1658532
  34.6377440  29.0461237  50.4300970  35.4752662  29.4558245  50.2134678
  34.8155707  28.1060679  50.4001164  46.5341872  26.7136317  46.1184803
  46.0188495  27.4840922  46.3573190  46.2619180  26.0401454  46.7417864
  44.1188983  21.5586018  51.1770041  43.2630579  21.1692869  50.9975680
  44.5315935  21.6377979  50.3169827  41.8931015  19.1771091  54.5827783
  42.7584012  18.9813900  54.2233672  41.9608524  18.9481443  55.5097139
  51.5076146  29.4668672  48.0537976  50.7305589  29.1279832  47.6093138
  52.1867627  29.4721295  47.3792941  46.3228175  24.5863410  47.9444584
  46.0178311  24.9009559  48.7954727  47.2758617  24.6644829  47.9871917
  44.7674607  30.7453633  49.5937538  44.2395968  30.0106392  49.2810775
  44.2662110  31.5228309  49.3477506  39.4993334  21.4073299  51.9544150
  40.0737086  21.1848481  51.2217342  40.0864317  21.4761994  52.7072751
  39.8262921  23.4377760  45.9740035  38.9900234  23.7752447  46.2949310
  39.6867691  23.3026740  45.0367172  41.8016002  18.2814548  50.6819219
  41.1480414  17.9663565  50.0575834  41.7596476  17.6590289  51.4079042
  42.9127207  28.5633843  42.5972511  42.0054269  28.3323097  42.7963660
  43.4098239  27.7671462  42.7846493  45.8195286  37.2731350  45.5169197
  45.1456985  37.5763047  46.1254155  46.2061108  38.0760431  45.1674654
  45.0353742  24.7696482  55.0066867  44.1176304  24.9911429  54.8488555
  45.4513886  24.8442792  54.1478574  45.8188790  26.1687897  50.1369547
  46.5660609  26.6809294  49.8276669  46.0880380  25.8471950  50.9973940
  44.0915440  28.6646438  47.1196501  43.1826660  28.3805471  47.2168971
  44.1210524  29.0845517  46.2599808  48.2667627  23.2045014  52.1188336
  47.5290384  22.6922400  52.4498579  48.5194401  22.7645395  51.3071613
  34.6603611  26.3851952  51.1011703  34.4628011  25.7921313  50.3762770
  34.1050275  26.0804162  51.8187642  42.6400334  26.2775059  53.2206297
  42.6948944  25.3248895  53.1448773  41.8291536  26.4334498  53.7047595
  43.7891528  30.2055182  44.4584580  43.3510958  29.4891041  43.9990217
  44.5301969  30.4331296  43.8969671  40.5792694  24.8952118  50.9796675
  39.7660560  25.1946289  51.3861868  41.0751689  24.5007807  51.6971158
  40.0706769  22.4670474  56.5957910  40.7106148  22.3259233  55.8980874
  39.2384300  22.1804987  56.2196512  40.8467073  31.7672904  52.7092903
  41.6407672  31.2723224  52.5075478  40.1358765  31.2390767  52.3460608
  37.1549836  25.9115986  48.7852655  36.2247425  25.8500442  49.0022618
  37.2507308  25.3891939  47.9889297  37.0735386  22.4370799  51.3730897
  37.3342203  23.3516132  51.2640058  37.8952558  21.9695241  51.5227510
  38.5460311  23.8508556  58.5429722  39.2183364  23.6425918  57.8942371
  37.7190097  23.6530642  58.1034954  44.0186501  37.4411023  47.7316276
  44.1938257  36.9699066  48.5461899  43.3319289  38.0676789  47.9597537
  47.9102756  29.0639563  44.0516637  47.2931926  28.3386391  43.9549690
  47.4419244  29.8248924  43.7083712  39.7001302  23.2824988  43.1737942
  38.8230768  23.1613788  42.8100188  40.1759055  22.4911066  42.9216830
  31.2203442  28.0702147  53.2679449  31.9074482  27.7563877  52.6800464
  31.0651571  28.9743512  52.9946700  36.0238164  22.9592344  57.6964472
  35.9396353  22.3518013  56.9614882  35.2020870  23.4501362  57.6973969
  47.2791659  30.2017595  50.6373091  46.3447937  30.3219057  50.4677795
  47.4568327  29.2990061  50.3733101  42.7796847  23.5863290  52.7906352
  42.4094634  23.0334331  53.4787258  43.2755939  22.9821424  52.2381352
  50.6664210  26.0434914  51.1723125  51.1324662  26.8762906  51.0983428
  51.1171710  25.5779896  51.8768384  48.7340441  32.3878735  48.1709277
  49.0100285  32.2735330  49.0803151  47.8644940  31.9896220  48.1321450
  30.7971418  26.1502741  55.5396916  30.8355518  25.6166331  56.3334034
  30.2911711  25.6237946  54.9207893  38.1762180  20.9967281  59.0359458
  38.2403507  21.8582112  58.6236856  38.1129301  20.3841283  58.3031817
  34.4279996  24.8766843  48.6150847  34.7233437  23.9677521  48.5617901
  33.5268031  24.8554582  48.2931850  37.9574243  22.9522839  54.5978396
  37.2360828  23.5658807  54.4585869  38.7467498  23.4880604  54.5195042
  36.1567837  22.5580941  48.7390172  35.8280543  21.6778319  48.5565278
  36.5107208  22.5028609  49.6266562  39.2709660  22.8453910  49.1065650
  39.6105733  23.3739832  48.3844258  39.7181781  23.1834316  49.8824217
  41.2577807  21.3428532  47.3058943  41.9786170  21.7209785  46.8022660
  40.6343112  22.0617409  47.4093921  45.4008930  22.0473681  48.2417275
  45.6172545  22.9298319  47.9406103  44.9202997  21.6559894  47.5122917
  40.1408152  25.0059394  54.8188020  39.9952732  25.3199697  55.7112301
  39.6633355  25.6244294  54.2658918  42.0004535  21.9961942  54.8668909
  41.9866103  21.1003035  54.5301207  42.7176963  22.0032606  55.5007195
  34.6153814  27.5464738  57.7575681  34.0707282  28.3224546  57.8895955
  35.4933164  27.8935543  57.5994802  41.4041431  20.8776322  50.1356479
  41.5257342  19.9492969  50.3347367  41.1143473  20.8915008  49.2234795
  49.7852027  34.8516834  46.7909020  50.4802931  35.4723526  47.0096335
  50.1275177  34.0012185  47.0661398  51.6843450  32.3016539  48.3196351
  52.2094774  32.6403812  47.5945671  51.5965802  31.3663555  48.1359486
  35.8476449  34.5600063  52.6816232  36.6734469  34.2603835  52.3014876
  35.4970501  33.7907686  53.1306021  34.0485054  32.4786390  53.6405166
  33.2116963  32.0508564  53.4589167  34.0208700  32.6718833  54.5775957
  40.3771489  32.4630455  48.2272367  40.5259610  33.1465919  47.5739039
  41.1837933  32.4435545  48.7421822  38.1324122  28.4895633  49.2333435
  37.8870164  27.5857963  49.4313646  38.3020037  28.4912783  48.2912913
  37.4019770  24.2223990  46.7319597  36.7089015  24.2968345  46.0759633
  37.1571522  23.4584334  47.2541114  43.8766895  34.9578585  45.6984114
  43.3040862  35.5768773  45.2454586  44.4499689  35.5077947  46.2324036
  47.0964155  35.2415736  46.8292696  48.0294828  35.1761297  47.0325572
  47.0087368  36.0772002  46.3707229  49.7252171  34.5581606  43.7896644
  49.6465803  34.2241470  44.6832402  50.5461838  35.0503374  43.7888116
  44.2613694  26.2939398  43.0400166  45.2072798  26.1645606  43.1088585
  43.8827938  25.5554060  43.5169595  42.4456611  24.2189375  42.9755052
  41.5388066  23.9222487  43.0517765  42.7232592  23.9219193  42.1089338
  33.3634551  25.5395738  53.4254098  33.0437335  24.6861046  53.1328472
  32.8167979  25.7544316  54.1812065  44.0618676  18.7626264  49.1299293
  43.2519405  18.4173349  49.5054539  44.7503093  18.4533808  49.7186905
  41.2155395  21.0776310  43.1167031  42.0774559  21.4031208  43.3762848
  41.4005739  20.2907806  42.6040097  33.2322811  29.1598650  55.3947220
  32.5386282  28.7452602  54.8817174  33.9795802  29.2019186  54.7980639
  35.1459554  29.0916903  53.2713235  35.1230242  29.1904591  52.3195118
  35.4560190  29.9382054  53.5930401  48.1512910  22.1104927  49.3158602
  47.2638765  22.3954577  49.0978797  48.5666899  21.9498690  48.4685879
  47.2956123  31.8749601  43.4106622  47.9991973  32.0799604  44.0264278
  46.5718772  32.4426363  43.6755706  48.1253934  27.6259463  49.5308892
  48.0689135  28.0828014  48.6916525  48.6782276  26.8650147  49.3531735
  49.2042821  32.3132131  45.4605082  50.0388425  31.8813329  45.2782557
  49.0427164  32.1414144  46.3881977  48.8588713  28.8164244  46.8261422
  48.8037517  28.6508515  45.8849866  48.2334768  29.5240277  46.9823611
  42.1684838  18.3172353  46.4046740  42.1563508  19.2614193  46.5615011
  43.0608260  18.1342498  46.1106201  50.5395056  38.6116905  43.1737942
  49.6624523  38.4905706  42.8100188  51.0152809  37.8202984  42.9216830
  53.2850365  39.5481292  42.9755052  52.3781821  39.2514405  43.0517765
  53.5626346  39.2511110  42.1089338  52.0549150  36.4068228  43.1167031
  52.9168314  36.7323126  43.3762848  52.2399494  35.6199723  42.6040097
  53.0078593  33.6464271  46.4046740  52.9957263  34.5906110  46.5615011
  53.9002015  33.4634416  46.1106201  27.7453833   2.2670590  41.2301443
  27.9850431   2.8989115  41.9080462  26.9023030   1.9158630  41.5166802
  28.4772533  -0.7347800  41.3393796  28.3604917   0.2097632  41.2372486
  27.6564979  -1.0374239  41.7279595  39.6609864   6.3134891  38.2063981
  39.0974730   6.2224828  37.4380269  39.5462260   5.4934796  38.6866474
  37.2074296   7.8086083  41.0448202  37.9995588   7.4676907  40.6294501
  37.4470947   7.9181058  41.9650355  45.2409423   9.9805859  33.5178446
  44.5897403  10.5659939  33.1312460  46.0353786  10.5112054  33.5773484
  39.1665050   7.0694996  33.9165581  39.9395926   6.5223983  33.7778456
  39.5190449   7.9339245  34.1280042  41.0050093   8.3971378  47.1232480
  40.7139959   9.3017009  47.0079146  41.6407077   8.4387906  47.8376549
  41.9306300   5.7748227  43.7133839  42.5269872   5.5504249  42.9990802
  41.9881271   5.0332972  44.3159287  46.7184688   7.6696291  34.0547430
  46.0830521   7.7430917  34.7668335  46.3882095   8.2589890  33.3766510
  41.2227617   5.1315768  33.7508405  41.1063875   4.4560671  34.4189490
  41.3329877   4.6448142  32.9340558  45.9639978   8.0832794  44.1182273
  45.6640701   8.9857833  44.0098081  45.6191038   7.8164977  44.9703426
  39.4152459   4.5346591  40.1518978  38.4902956   4.4022805  40.3596670
  39.6636873   5.3140810  40.6488920  36.7761271   4.1779864  40.9862767
  36.9053652   4.4314343  41.9002179  36.0958722   4.7707572  40.6667422
  40.9460758  14.8477114  37.0853241  40.8684788  15.7984939  37.1641722
  40.3422401  14.5022987  37.7428167  47.4908514   7.5320764  41.6557025
  46.8617377   7.6966478  40.9533093  47.1034176   7.9462374  42.4267989
  51.3697746   8.4675202  39.0101389  50.6848784   8.8474103  38.4598423
  51.4541595   9.0770528  39.7433337  43.0436476   7.2695172  38.9207111
  43.5074822   7.5482875  38.1311733  42.7793274   6.3678617  38.7380201
  39.9360557   6.8166654  41.8586874  40.5061914   7.2453922  41.2204358
  40.5268669   6.5349238  42.5571059  35.7230696   1.6501877  41.0313809
  34.9329750   1.9059406  40.5553920  36.2141943   2.4650215  41.1365850
  43.5051109   8.5391160  45.9379801  43.5695542   9.0011567  46.7737972
  42.7962033   7.9088524  46.0662110  34.0068399   1.9032368  43.4628800
  34.2576437   2.7879377  43.7286376  34.5427947   1.7236969  42.6903892
  43.2199127  10.2059267  35.8058781  43.0844802  11.0510803  36.2343629
  43.7608939  10.4078545  35.0424715  36.6728524   7.7234705  36.3786706
  37.1853045   8.5177955  36.5292271  37.3251237   7.0260996  36.3120307
  38.4823409  10.8400461  38.4609459  38.6590037  11.7618426  38.2730443
  39.2780242  10.5258881  38.8903839  39.6054724  12.3578635  44.4619802
  40.1562149  12.2295699  43.6896795  38.7666200  12.6573524  44.1114694
  34.6377441   6.0523359  37.1546277  35.4752663   6.4620368  36.9379984
  34.8155709   5.1122802  37.1246470  44.7674608   7.7515755  36.3182845
  44.2395970   7.0168515  36.0056082  44.2662111   8.5290432  36.0722813
  42.9127208   5.5695966  29.3217818  42.0054270   5.3385219  29.5208967
  43.4098240   4.7733585  29.5091799  45.8195287  14.2793473  32.2414504
  45.1456986  14.5825170  32.8499462  46.2061109  15.0822553  31.8919961
  44.0915442   5.6708561  33.8441808  43.1826661   5.3867593  33.9414278
  44.1210525   6.0907639  32.9845115  49.3234709   9.2815150  37.6132975
  48.8697036   8.4406060  37.6698166  48.6928676   9.9176548  37.9507755
  47.7667648  11.1191647  38.5482793  48.0590623  11.6796704  37.8295159
  48.2766269  11.4120208  39.3035953  34.6603612   3.3914075  37.8257010
  34.4628012   2.7983435  37.1008077  34.1050276   3.0866285  38.5432949
  43.7891529   7.2117304  31.1829886  43.3510959   6.4953163  30.7235524
  44.5301970   7.4393419  30.6214978  42.7301274  11.8971998  39.6376247
  42.6877452  12.1232844  38.7084779  43.6463972  11.6635372  39.7862048
  40.8467074   8.7735027  39.4338209  41.6407673   8.2785347  39.2320784
  40.1358767   8.2452890  39.0705915  45.6661919  11.1553122  43.7850577
  45.7198941  11.7244059  44.5528293  44.7976700  11.3255007  43.4204614
  37.1549838   2.9178109  35.5097962  36.2247426   2.8562564  35.7267924
  37.2507310   2.3954061  34.7134603  43.4238350   9.3464049  43.1136047
  43.2849436   8.9782833  43.9861985  42.6352947   9.8611688  42.9420004
  44.0186502  14.4473145  34.4561583  44.1938258  13.9761189  35.2707206
  43.3319290  15.0738912  34.6842844  44.9743565   8.7245652  40.5024884
  44.6393398   8.6846422  41.3982534  44.4747511   8.0590367  40.0295295
  38.9487809   4.1313282  46.0277465  38.8107607   3.3993520  46.6289004
  39.8592733   4.0422182  45.7461653  38.5847588  17.5962508  41.2301443
  38.8244186  18.2281032  41.9080462  37.7416784  17.2450548  41.5166802
  31.2203443   5.0764270  39.9924755  31.9074483   4.7626000  39.4045771
  31.0651572   5.9805635  39.7192007  43.0975449  13.4041631  43.6342947
  43.0245621  14.2096602  44.1462252  42.6552843  13.6033596  42.8090969
  42.8865229  12.6413401  37.1445769  42.1032751  13.1835081  37.2383993
  43.5857974  13.1587380  37.5440010  45.5574133  13.3028465  45.7901106
  46.2702105  13.9375929  45.7177007  45.0664162  13.3992331  44.9741108
  47.2791660   7.2079717  37.3618398  46.3447939   7.3281180  37.1923102
  47.4568328   6.3052184  37.0978407  40.6086046  11.0522908  46.6106677
  41.3095506  11.6859391  46.7636071  40.1381161  11.3937640  45.8502316
  48.7340442   9.3940858  34.8954584  49.0100286   9.2797452  35.8048458
  47.8644941   8.9958343  34.8566757  45.3694506  13.6427209  38.5387397
  45.5516901  12.8248865  39.0015150  46.1927492  13.8594901  38.1012287
  45.7036672  12.5695394  35.8002446  46.2324438  12.0587848  35.1872608
  45.9664891  12.2537924  36.6647979  36.2053765  10.5859263  43.5437779
  36.7907201   9.8402951  43.6765684  36.0078603  10.8963220  44.4274443
  39.0592420  13.6210510  38.5600222  38.3902795  14.1056638  38.0764262
  38.9205289  13.8679731  39.4743600  30.7971419   3.1564863  42.2642223
  30.8355519   2.6228454  43.0579341  30.2911712   2.6300069  41.6453200
  43.1997688  15.6554254  45.1582880  43.7515996  15.8185875  45.9231965
  43.5403882  16.2458692  44.4862905  46.3366076  13.6036230  42.1446562
  46.2117215  12.8025969  41.6357508  46.9945167  14.0982423  41.6560532
  48.4000984  11.4045250  43.7726112  47.4531320  11.2850601  43.7004439
  48.7483757  10.5167748  43.8552374  45.4047417  11.1997966  39.9730465
  45.2572380  10.2714673  40.1538035  46.2300911  11.2218057  39.4887540
  49.0081539  12.0226525  41.0595337  49.9328087  11.8169386  40.9219788
  48.8396842  11.7742926  41.9684679  48.7976855  12.5412192  36.4157429
  48.9713733  11.9758614  35.6631281  49.2905747  13.3413087  36.2336919
  34.6153815   4.5526861  44.4820988  34.0707283   5.3286669  44.6141262
  35.4933165   4.8997666  44.3240109  49.7852028  11.8578956  33.5154327
  50.4802932  12.4785649  33.7341642  50.1275178  11.0074308  33.7906705
  35.4019837   3.6796757  47.3751144  34.6601573   3.8279393  47.9615775
  35.0812581   3.9405023  46.5117894  51.6843451   9.3078662  35.0441658
  52.2094775   9.6465935  34.3190978  51.5965804   8.3725677  34.8604792
  43.3463500  13.2212736  47.1731534  43.6550626  12.9761882  48.0454234
  44.1438982  13.4259374  46.6850405  43.3684112  15.3750645  39.4036911
  42.9289102  14.8827024  40.0969768  44.1192229  14.8323613  39.1628986
  35.8476451  11.5662186  39.4061539  36.6734471  11.2665958  39.0260183
  35.4970503  10.7969809  39.8551328  40.8157984  10.9188654  41.4759213
  40.1937993  10.2559359  41.1761441  41.4862851  10.9449786  40.7932860
  34.0485056   9.4848513  40.3650473  33.2116964   9.0570687  40.1834474
  34.0208701   9.6780956  41.3021264  40.3771491   9.4692578  34.9517673
  40.5259611  10.1528042  34.2984346  41.1837934   9.4497668  35.4667129
  38.1324124   5.4957755  35.9578742  37.8870166   4.5920085  36.1558952
  38.3020038   5.4974906  35.0158220  43.8766896  11.9640708  32.4229421
  43.3040863  12.5830895  31.9699893  44.4499690  12.5140070  32.9569343
  47.0964156  12.2477858  33.5538003  48.0294829  12.1823420  33.7570878
  47.0087369  13.0834125  33.0952536  49.7252173  11.5643729  30.5141950
  49.6465804  11.2303592  31.4077708  50.5461840  12.0565496  30.5133423
  33.3634552   2.5457861  40.1499405  33.0437337   1.6923169  39.8573779
  32.8167980   2.7606439  40.9057372  37.1414460   5.2620302  43.8668911
  37.3600470   6.1937409  43.8856945  37.5540234   4.9028276  44.6523715
  33.2322812   6.1660772  42.1192526  32.5386284   5.7514725  41.6062481
  33.9795803   6.2081309  41.5225945  35.1459555   6.0979026  39.9958541
  35.1230243   6.1966713  39.0440424  35.4560191   6.9444177  40.3175707
  37.8046933   8.1555181  44.1105156  38.7590186   8.1239123  44.0435087
  37.6059456   7.6945805  44.9255382  38.3946315   6.7256297  46.6775953
  39.2139204   7.2200376  46.7010791  38.6683123   5.8088265  46.6493521
  36.1597162  13.6974800  41.1275354  36.0251629  12.9375201  40.5613352
  35.7429224  14.4215700  40.6604142  47.2956125   8.8811724  30.1351929
  47.9991975   9.0861726  30.7509584  46.5718773   9.4488486  30.4001012
  39.3166287  14.5944117  41.3393796  39.1998672  15.5389550  41.2372486
  38.4958734  14.2917679  41.7279595  49.2042822   9.3194253  32.1850389
  50.0388426   8.8875452  32.0027864  49.0427165   9.1476267  33.1127283
  40.3420802  15.2472379  44.5549725  41.2448048  15.2795990  44.8716220
  40.1158172  14.3172830  44.5696060  42.0974404  14.0003366  41.2159803
  41.1470035  14.0005227  41.1024175  42.4006890  13.2536100  40.6995838
  50.5003619  21.6426809  38.2063981  49.9368484  21.5516746  37.4380269
  50.3856014  20.8226713  38.6866474  48.0468051  23.1378000  41.0448202
  48.8389343  22.7968825  40.6294501  48.2864701  23.2472975  41.9650355
  50.0058805  22.3986914  33.9165581  50.7789681  21.8515901  33.7778456
  50.3584204  23.2631163  34.1280042  51.8443847  23.7263296  47.1232480
  51.5533713  24.6308927  47.0079146  52.4800832  23.7679824  47.8376549
  52.7700054  21.1040144  43.7133839  53.3663627  20.8796167  42.9990802
  52.8275026  20.3624890  44.3159287  52.3425083  18.5579580  31.5484030
  52.5950603  18.0361101  30.7867493  51.4049642  18.3945725  31.6510714
  52.0621371  20.4607686  33.7508405  51.9457630  19.7852589  34.4189490
  52.1723631  19.9740060  32.9340558  54.0458399  14.9507733  32.4516443
  54.2132802  15.8187969  32.8186914  53.8555568  15.1135014  31.5277732
  50.2546214  19.8638508  40.1518978  49.3296710  19.7314722  40.3596670
  50.5030627  20.6432728  40.6488920  54.0247620  17.4065390  33.4363110
  53.9047245  17.8522441  34.2748590  53.3300209  17.7550708  32.8776648
  47.6155025  19.5071782  40.9862767  47.7447406  19.7606261  41.9002179
  46.9352476  20.0999490  40.6667422  51.7854512  30.1769032  37.0853241
  51.7078542  31.1276857  37.1641722  51.1816156  29.8314904  37.7428167
  53.8830231  22.5987090  38.9207111  54.3468576  22.8774793  38.1311733
  53.6187029  21.6970534  38.7380201  50.7754312  22.1458571  41.8586874
  51.3455669  22.5745840  41.2204358  51.3662423  21.8641156  42.5571059
  52.8199117  18.7210242  35.7296676  53.5223160  19.1731286  36.1970602
  52.4879745  18.0794061  36.3576569  46.5624451  16.9793795  41.0313809
  45.7723505  17.2351323  40.5553920  47.0535698  17.7942133  41.1365850
  48.5139196  17.3438374  37.9897286  47.7170359  17.4557068  38.5080782
  48.2864788  17.6825026  37.1238176  54.3444864  23.8683077  45.9379801
  54.4089296  24.3303484  46.7737972  53.6355787  23.2380442  46.0662110
  44.8462154  17.2324285  43.4628800  45.0970192  18.1171295  43.7286376
  45.3821702  17.0528887  42.6903892  54.0592881  25.5351185  35.8058781
  53.9238556  26.3802720  36.2343629  54.6002694  25.7370462  35.0424715
  47.5122279  23.0526623  36.3786706  48.0246799  23.8469873  36.5292271
  48.1644991  22.3552913  36.3120307  49.3217163  26.1692379  38.4609459
  49.4983792  27.0910344  38.2730443  50.1173997  25.8550798  38.8903839
  48.6069520  18.2157011  48.3371622  48.4923035  17.3142268  48.6378721
  47.7514038  18.4620708  47.9856439  50.4448479  27.6870553  44.4619802
  50.9955904  27.5587616  43.6896795  49.6059955  27.9865442  44.1114694
  45.4771195  21.3815277  37.1546277  46.3146417  21.7912285  36.9379984
  45.6549463  20.4414719  37.1246470  52.7324771  11.5125131  41.3073089
  53.5977768  11.3167940  40.9478979  52.8002280  11.2835483  42.2342446
  50.3387090  13.7427339  38.6789456  50.9130842  13.5202521  37.9462649
  50.9258073  13.8116034  39.4318057  50.6656677  15.7731800  32.6985341
  49.8293990  16.1106487  33.0194616  50.5261447  15.6380780  31.7612478
  52.6409758  10.6168588  37.4064526  51.9874170  10.3017605  36.7821140
  52.5990232   9.9944329  38.1324349  53.7520963  20.8987883  29.3217818
  52.8448024  20.6677137  29.5208967  54.2491995  20.1025503  29.5091799
  54.9309196  21.0000478  33.8441808  54.0220415  20.7159511  33.9414278
  54.9604280  21.4199557  32.9845115  45.4997367  18.7205992  37.8257010
  45.3021766  18.1275353  37.1008077  44.9444031  18.4158203  38.5432949
  53.4794090  18.6129099  39.9451603  53.5342700  17.6602935  39.8694080
  52.6685292  18.7688538  40.4292902  51.4186450  17.2306159  37.7041982
  50.6054316  17.5300329  38.1107174  51.9145444  16.8361847  38.4216464
  53.5695028  27.2263916  39.6376247  53.5271207  27.4524762  38.7084779
  54.4857727  26.9927290  39.7862048  50.9100525  14.8024514  43.3203217
  51.5499904  14.6613273  42.6226180  50.0778055  14.5159028  42.9441819
  51.6860829  24.1026945  39.4338209  52.4801427  23.6077265  39.2320784
  50.9752521  23.5744808  39.0705915  47.9943592  18.2470026  35.5097962
  47.0641180  18.1854482  35.7267924  48.0901064  17.7245979  34.7134603
  47.9129141  14.7724839  38.0976204  48.1735959  15.6870172  37.9885364
  48.7346314  14.3049282  38.2472817  49.3854067  16.1862596  45.2675028
  50.0577120  15.9779958  44.6187677  48.5583853  15.9884682  44.8280261
  54.2632105  24.6755967  43.1136047  54.1243190  24.3074751  43.9861985
  53.4746701  25.1903606  42.9420004  49.7881564  19.4605199  46.0277465
  49.6501362  18.7285438  46.6289004  50.6986487  19.3714099  45.7461653
  52.4163865  19.1725159  45.5161145  53.1263483  18.5318351  45.4747764
  52.3733173  19.4238053  46.4387326  49.4241342  32.9254426  41.2301443
  49.6637940  33.5572950  41.9080462  48.5810539  32.5742466  41.5166802
  50.5395057  15.6179028  29.8983248  49.6624524  15.4967829  29.5345495
  51.0152811  14.8265106  29.6462137  42.0597198  20.4056188  39.9924755
  42.7468237  20.0917918  39.4045771  41.9045326  21.3097552  39.7192007
  46.8631920  15.2946384  44.4209779  46.7790108  14.6872054  43.6860189
  46.0414626  15.7855402  44.4219275  53.9369204  28.7333548  43.6342947
  53.8639375  29.5388520  44.1462252  53.4946597  28.9325514  42.8090969
  53.7258984  27.9705318  37.1445769  52.9426505  28.5126998  37.2383993
  54.4251729  28.4879298  37.5440010  53.6190602  15.9217331  39.5151659
  53.2488390  15.3688371  40.2032564  54.1149695  15.3175464  38.9626659
  51.4479801  26.3814826  46.6106677  52.1489260  27.0151309  46.7636071
  50.9774916  26.7229557  45.8502316  47.0447519  25.9151181  43.5437779
  47.6300956  25.1694869  43.6765684  46.8472357  26.2255137  44.4274443
  49.8986174  28.9502428  38.5600222  49.2296549  29.4348556  38.0764262
  49.7599044  29.1971649  39.4743600  41.6365174  18.4856781  42.2642223
  41.6749273  17.9520372  43.0579341  41.1305467  17.9591986  41.6453200
  54.0391443  30.9846172  45.1582880  54.5909751  31.1477793  45.9231965
  54.3797636  31.5750609  44.4862905  49.0155936  13.3321321  45.7604765
  49.0797263  14.1936152  45.3482162  48.9523056  12.7195323  45.0277123
  45.2673751  17.2120883  35.3396154  45.5627192  16.3031562  35.2863208
  44.3661787  17.1908623  35.0177156  48.7967998  15.2876880  41.3223702
  48.0754584  15.9012847  41.1831176  49.5861254  15.8234645  41.2440348
  46.9961593  14.8934981  35.4635479  46.6674299  14.0132360  35.2810585
  47.3500964  14.8382649  36.3511868  50.1103416  15.1807951  35.8310957
  50.4499489  15.7093872  35.1089565  50.5575537  15.5188357  36.6069523
  52.0971563  13.6782572  34.0304249  52.8179926  14.0563825  33.5267966
  51.4736867  14.3971449  34.1339227  50.9801907  17.3413434  41.5433326
  50.8346488  17.6553737  42.4357608  50.5027111  17.9598335  40.9904225
  52.8398290  14.3315982  41.5914216  52.8259859  13.4357076  41.2546514
  53.5570718  14.3386646  42.2252502  45.4547570  19.8818779  44.4820988
  44.9101038  20.6578587  44.6141262  46.3326919  20.2289583  44.3240109
  52.2435186  13.2130363  36.8601786  52.3651097  12.2847009  37.0592674
  51.9537229  13.2269049  35.9480102  46.2413591  19.0088675  47.3751144
  45.4995328  19.1571310  47.9615775  45.9206336  19.2696941  46.5117894
  54.1857254  28.5504653  47.1731534  54.4944381  28.3053800  48.0454234
  54.9832736  28.7551292  46.6850405  54.2077866  30.7042563  39.4036911
  53.7682856  30.2118942  40.0969768  54.9585983  30.1615531  39.1628986
  46.6870205  26.8954104  39.4061539  47.5128225  26.5957876  39.0260183
  46.3364257  26.1261726  39.8551328  51.6551738  26.2480572  41.4759213
  51.0331748  25.5851277  41.1761441  52.3256605  26.2741704  40.7932860
  44.8878810  24.8140430  40.3650473  44.0510719  24.3862605  40.1834474
  44.8602456  25.0072874  41.3021264  51.2165245  24.7984495  34.9517673
  51.3653366  25.4819960  34.2984346  52.0231689  24.7789585  35.4667129
  48.9717878  20.8249673  35.9578742  48.7263920  19.9212003  36.1558952
  49.1413793  20.8266823  35.0158220  48.2413526  16.5578031  33.4564904
  47.5482771  16.6322386  32.8004940  47.9965278  15.7938374  33.9786421
  53.2850366  16.5543415  29.7000358  52.3781822  16.2576528  29.7763072
  53.5626347  16.2573233  28.8334645  44.2028307  17.8749778  40.1499405
  43.8831091  17.0215087  39.8573779  43.6561735  18.0898356  40.9057372
  47.9808214  20.5912219  43.8668911  48.1994224  21.5229327  43.8856945
  48.3933988  20.2320194  44.6523715  52.0549151  13.4130350  29.8412338
  52.9168315  13.7385248  30.1008155  52.2399495  12.6261846  29.3285403
  44.0716567  21.4952690  42.1192526  43.3780038  21.0806643  41.6062481
  44.8189558  21.5373226  41.5225945  45.9853309  21.4270944  39.9958541
  45.9623997  21.5258631  39.0440424  46.2953946  22.2736094  40.3175707
  48.6440687  23.4847099  44.1105156  49.5983941  23.4531041  44.0435087
  48.4453211  23.0237722  44.9255382  49.2340069  22.0548215  46.6775953
  50.0532958  22.5492293  46.7010791  49.5076877  21.1380183  46.6493521
  46.9990916  29.0266718  41.1275354  46.8645384  28.2667119  40.5613352
  46.5822978  29.7507618  40.6604142  50.1560042  29.9236035  41.3393796
  50.0392426  30.8681468  41.2372486  49.3352488  29.6209597  41.7279595
  44.4874984  16.3886349  47.3768150  45.1333847  15.8785303  47.8655376
  44.2792135  17.1255030  47.9511576  53.0078594  10.6526393  33.1292047
  52.9957264  11.5968233  33.2860317  53.9002016  10.4696539  32.8351508
  51.1814556  30.5764297  44.5549725  52.0841803  30.6087907  44.8716220
  50.9551926  29.6464748  44.5696060  52.9368158  29.3295284  41.2159803
  51.9863789  29.3297145  41.1024175  53.2400644  28.5828018  40.6995838
  52.8990952  35.7348105  39.9924755  53.5861992  35.4209835  39.4045771
  52.7439081  36.6389470  39.7192007  52.4758928  33.8148699  42.2642223
  52.5143028  33.2812289  43.0579341  51.9699221  33.2883904  41.6453200
  49.4241343   9.9316548  27.9546750  49.6637942  10.5635073  28.6325768
  48.5810540   9.5804588  28.2412109  50.1560043   6.9298158  28.0639103
  50.0392427   7.8743590  27.9617793  49.3352489   6.6271719  28.4524902
  52.8990953  12.7410228  26.7170062  53.5861993  12.4271958  26.1291077
  52.7439082  13.6451593  26.4437313  52.4758929  10.8210821  28.9887529
  52.5143029  10.2874412  29.7824647  51.9699222  10.2946027  28.3698506
   2.4620268  21.9439433  45.5169194   1.7881967  22.2471129  46.1254152
   2.8486090  22.7468513  45.1674651   6.4277009  19.5224916  46.7909017
   7.1227913  20.1431609  47.0096332   6.7700159  18.6720267  47.0661395
   6.3677154  19.2289688  43.7896641   6.2890785  18.8949552  44.6832399
   7.1886820  19.7211456  43.7888113   3.9381105  16.5457684  43.4106619
   4.6416955  16.7507686  44.0264275   3.2143754  17.1134446  43.6755703
   7.1428600  29.3072769  51.4818672   6.5793465  29.2162705  50.7134959
   7.0280995  28.4872673  51.9621164  12.7228158  32.9743736  46.7933136
  12.0716138  33.5597817  46.4067150  13.5172521  33.5049931  46.8528174
   6.6483786  30.0632873  47.1920271   7.4214662  29.5161860  47.0533147
   7.0009185  30.9277123  47.4034732   8.9850063  26.2225540  44.8238721
   9.2375584  25.7007061  44.0622184   8.0474623  26.0591685  44.9265404
  14.0293346  25.2261318  52.6313464  14.8156436  24.8080741  52.2803881
  14.2932051  26.1307410  52.7995112  14.2003424  30.6634168  47.3302121
  13.5649257  30.7368795  48.0423025  13.8700830  31.2527767  46.6521200
  19.4301773  25.1636551  53.5346442  20.1626945  24.5935768  53.7684272
  18.6741129  24.7758152  53.9752948   8.7046352  28.1253645  47.0263096
   8.5882610  27.4498549  47.6944180   8.8148612  27.6386019  46.2095249
  11.0477893  27.5863793  50.7309785  10.6836100  27.0594414  51.4422706
  11.9045009  27.1962262  50.5576270  10.6883380  22.6153692  45.7271133
  10.8557782  23.4833929  46.0941604  10.4980549  22.7780974  44.8032423
  10.6672601  25.0711350  46.7117800  10.5472226  25.5168401  47.5503281
   9.9725189  25.4196667  46.1531338  16.3657667  25.5432823  47.5398134
  17.2775523  25.7760210  47.3645832  15.8567314  26.1269867  46.9773213
  14.9727249  30.5258641  54.9311716  14.3436112  30.6904356  54.2287784
  14.5852912  30.9400251  55.7022680  18.8516481  31.4613079  52.2856080
  18.1667520  31.8411981  51.7353113  18.9360331  32.0708406  53.0188027
  10.5255211  30.2633049  52.1961801  10.9893557  30.5420752  51.4066423
  10.2612009  29.3616494  52.0134892   9.4624097  26.3856202  49.0051366
  10.1648141  26.8377246  49.4725292   9.1304726  25.7440021  49.6331259
  17.2213241  31.9844994  57.0573780  18.0430685  31.5825181  56.7756462
  17.2175644  31.8813228  58.0089896  25.3119234  28.3283742  53.4058752
  24.5582942  27.7591140  53.2502756  25.4466775  28.2946407  54.3529387
  10.7017862  33.1997144  49.0813471  10.5663537  34.0448680  49.5098319
  11.2427675  33.4016422  48.3179405   4.1547259  30.7172582  49.6541396
   4.6671780  31.5115833  49.8046961   4.8069972  30.0198873  49.5874998
  14.0160608  26.7136317  46.1184800  13.5007232  27.4840922  46.3573187
  13.7437917  26.0401454  46.7417861  18.9894882  29.4668672  48.0537973
  18.2124325  29.1279832  47.6093135  19.6686363  29.4721295  47.3792938
  13.8046911  24.5863410  47.9444581  13.4997047  24.9009559  48.7954724
  14.7577354  24.6644829  47.9871914  12.2493343  30.7453633  49.5937535
  11.7214705  30.0106392  49.2810772  11.7480846  31.5228309  49.3477503
  17.2286189  28.9402653  54.7104581  16.5709864  29.6301915  54.7984710
  18.0326589  29.3299085  55.0538568  16.0391648  27.2947026  52.7608523
  16.5523530  27.9277018  53.2630233  16.6892872  26.6948222  52.3951883
   7.3081658  23.4377760  45.9740032   6.4718970  23.7752447  46.2949306
   7.1686428  23.3026740  45.0367169  10.3945943  28.5633843  42.5972508
   9.4873005  28.3323097  42.7963657  10.8916975  27.7671462  42.7846490
  13.3014022  37.2731350  45.5169194  12.6275721  37.5763047  46.1254152
  13.6879844  38.0760431  45.1674651  13.3007527  26.1687897  50.1369544
  14.0479346  26.6809294  49.8276666  13.5699116  25.8471950  50.9973937
  11.5734177  28.6646438  47.1196498  10.6645396  28.3805471  47.2168968
  11.6029261  29.0845517  46.2599805  16.8053444  32.2753027  50.8887666
  16.3515771  31.4343937  50.9452856  16.1747411  32.9114426  51.2262446
  15.7486364  23.2045014  52.1188333  15.0109121  22.6922400  52.4498576
  16.0013137  22.7645395  51.3071610  15.2486384  34.1129524  51.8237484
  15.5409358  34.6734581  51.1049849  15.7585004  34.4058085  52.5790643
  11.2710265  30.2055182  44.4584577  10.8329695  29.4891041  43.9990214
  12.0120706  30.4331296  43.8969668  10.2120009  34.8909875  52.9130937
  10.1696188  35.1170722  51.9839469  11.1282708  34.6573250  53.0616738
  19.3883380  28.4812379  50.5160895  19.2501278  28.6713975  49.5882084
  19.0319598  29.2431762  50.9728946  19.4152759  30.5488906  55.5272167
  19.8489266  30.4564195  56.3755221  20.1284340  30.5246406  54.8892183
   8.3285810  31.7672904  52.7092900   9.1226408  31.2723224  52.5075475
   7.6177502  31.2390767  52.3460605   4.6368573  25.9115986  48.7852652
   3.7066161  25.8500442  49.0022615   4.7326045  25.3891939  47.9889294
  20.2768309  30.5912606  58.0605052  20.4704199  31.4958417  58.3064327
  20.1768927  30.1320025  58.8943637  11.5005238  37.4411023  47.7316273
  11.6756993  36.9699066  48.5461896  10.8138026  38.0676789  47.9597534
  12.4562301  31.7183529  53.7779575  12.1212133  31.6784299  54.6737224
  11.9566246  31.0528245  53.3049985  15.3921492  29.0639563  44.0516634
  14.7750663  28.3386391  43.9549687  14.9237981  29.8248924  43.7083708
   7.1820038  23.2824988  43.1737939   6.3049505  23.1613788  42.8100185
   7.6577791  22.4911066  42.9216827  10.3683964  35.6351278  50.4200459
   9.5851486  36.1772958  50.5138684  11.0676709  36.1525258  50.8194700
  21.5310372  27.1486273  54.7052956  21.5200248  28.0310988  54.3346889
  20.6627751  26.7957824  54.5107493  14.7610395  30.2017595  50.6373088
  13.8266674  30.3219057  50.4677792  14.9387064  29.2990061  50.3733098
  18.1482946  26.0434914  51.1723122  18.6143399  26.8762906  51.0983425
  18.5990447  25.5779896  51.8768380  16.2159178  32.3878735  48.1709274
  16.4919021  32.2735330  49.0803148  15.3463676  31.9896220  48.1321447
  12.8513242  36.6365086  51.8142088  13.0335636  35.8186742  52.2769840
  13.6746228  36.8532778  51.3766978  13.1855407  35.5633271  49.0757136
  13.7143173  35.0525726  48.4627298  13.4483627  35.2475801  49.9402669
  13.8184811  36.5974107  55.4201253  13.6935950  35.7963847  54.9112198
  14.4763902  37.0920300  54.9315223  15.8819719  34.3983127  57.0480803
  14.9350055  34.2788478  56.9759129  16.2302492  33.5105625  57.1307064
  12.8866153  34.1935843  53.2485155  12.7391115  33.2652551  53.4292725
  13.7119646  34.2155934  52.7642230   6.7528397  22.8453910  49.1065647
   7.0924469  23.3739832  48.3844255   7.2000517  23.1834316  49.8824214
  16.4900274  35.0164402  54.3350028  17.4146822  34.8107263  54.1974479
  16.3215578  34.7680803  55.2439369   8.7396544  21.3428532  47.3058940
   9.4604906  21.7209785  46.8022657   8.1161848  22.0617409  47.4093918
  12.8827667  22.0473681  48.2417272  13.0991281  22.9298319  47.9406100
  12.4021734  21.6559894  47.5122914  16.2795591  35.5350069  49.6912119
  16.4532468  34.9696492  48.9385972  16.7724482  36.3350964  49.5091609
  22.1334982  28.2986492  51.3102419  22.5766128  27.5493818  50.9121542
  21.2561492  28.2896629  50.9276151  17.2670763  34.8516834  46.7909017
  17.9621668  35.4723526  47.0096332  17.6093913  34.0012185  47.0661395
  19.1662186  32.3016539  48.3196348  19.6913510  32.6403812  47.5945668
  19.0784539  31.3663555  48.1359483   7.8590226  32.4630455  48.2272364
   8.0078346  33.1465919  47.5739036   8.6656669  32.4435545  48.7421819
  21.6767846  29.7691731  53.7024866  22.5114738  30.2081535  53.8662427
  21.8126975  29.2930384  52.8833112   5.6142859  28.4895633  49.2333432
   5.3688901  27.5857963  49.4313643   5.7838774  28.4912783  48.2912910
   4.8838507  24.2223990  46.7319594   4.1907751  24.2968345  46.0759630
   4.6390258  23.4584334  47.2541111  11.3585632  34.9578585  45.6984111
  10.7859599  35.5768773  45.2454583  11.9318425  35.5077947  46.2324033
  14.5782891  35.2415736  46.8292693  15.5113564  35.1761297  47.0325569
  14.4906104  36.0772002  46.3707226  17.2070908  34.5581606  43.7896641
  17.1284540  34.2241470  44.6832399  18.0280575  35.0503374  43.7888113
  11.7432430  26.2939398  43.0400163  12.6891535  26.1645606  43.1088581
  11.3646675  25.5554060  43.5169592  25.7225649  28.4859352  56.1378996
  26.4529038  28.2244640  56.6986700  25.1132595  27.7488074  56.1781064
  23.8040946  26.6267215  56.7353447  23.0774110  26.4923180  56.1269939
  23.3888233  26.9344043  57.5410165   9.9275347  24.2189375  42.9755049
   9.0206803  23.9222487  43.0517762  10.2051328  23.9219193  42.1089335
   8.6974132  21.0776310  43.1167028   9.5593296  21.4031208  43.3762845
   8.8824476  20.2907806  42.6040094  16.8506768  19.9504836  50.2602251
  16.2705437  20.6089640  49.8780303  16.5842701  19.1282181  49.8489668
  15.6331646  22.1104927  49.3158599  14.7457501  22.3954577  49.0978794
  16.0485635  21.9498690  48.4685876  18.9846182  22.1351448  53.0312938
  19.7606573  22.6247900  53.3037555  18.2594317  22.5609502  53.4884808
  21.4218741  22.8479067  54.0886879  22.0163232  22.6074803  53.3780187
  21.4945325  22.1286197  54.7160415  14.7774860  31.8749601  43.4106619
  15.4810710  32.0799604  44.0264275  14.0537509  32.4426363  43.6755703
  15.6072670  27.6259463  49.5308889  15.5507871  28.0828014  48.6916522
  16.1601013  26.8650147  49.3531732  19.4177476  23.4149195  50.3559009
  19.1614410  23.0145830  51.1867216  18.7930344  24.1292988  50.2309148
  23.7289814  26.1545268  52.8630300  23.1689372  26.2238457  53.6361862
  23.1233317  25.9786252  52.1429796  16.6861557  32.3132131  45.4605079
  17.5207161  31.8813329  45.2782554  16.5245900  32.1414144  46.3881974
  16.3407449  28.8164244  46.8261418  16.2856253  28.6508515  45.8849863
  15.7153505  29.5240277  46.9823608   9.6503575  18.3172353  46.4046737
   9.6382245  19.2614193  46.5615008  10.5426997  18.1342498  46.1106198
  17.9822354  44.6364686  51.4818672  17.4187219  44.5454623  50.7134959
  17.8674749  43.8164591  51.9621164  23.5621913  48.3035654  46.7933136
  22.9109893  48.8889734  46.4067150  24.3566276  48.8341849  46.8528174
  17.4877540  45.3924791  47.1920271  18.2608416  44.8453778  47.0533147
  17.8402939  46.2569040  47.4034732  19.8243818  41.5517457  44.8238721
  20.0769339  41.0298978  44.0622184  18.8868377  41.3883603  44.9265404
  24.8687101  40.5553236  52.6313464  25.6550190  40.1372659  52.2803881
  25.1325805  41.4599328  52.7995112  25.0397178  45.9926086  47.3302121
  24.4043011  46.0660712  48.0423025  24.7094585  46.5819685  46.6521200
  19.5440107  43.4545563  47.0263096  19.4276365  42.7790467  47.6944180
  19.6542367  42.9677937  46.2095249  21.8871648  42.9155710  50.7309785
  21.5229855  42.3886331  51.4422706  22.7438764  42.5254179  50.5576270
  21.5277135  37.9445610  45.7271133  21.6951537  38.8125846  46.0941604
  21.3374304  38.1072892  44.8032423  17.7364949  42.8576386  53.4273668
  16.8115446  42.7252600  53.6351360  17.9849362  43.6370605  53.9243611
  21.5066355  40.4003267  46.7117800  21.3865981  40.8460318  47.5503281
  20.8118944  40.7488585  46.1531338  27.2051422  40.8724741  47.5398134
  28.1169278  41.1052127  47.3645832  26.6961069  41.4561785  46.9773213
  24.5487396  37.0482777  55.7887995  23.6871875  37.3464030  56.0804733
  24.5749831  37.2653175  54.8569028  21.3648966  45.5924967  52.1961801
  21.8287311  45.8712670  51.4066423  21.1005764  44.6908412  52.0134892
  20.3017852  41.7148120  49.0051366  21.0041895  42.1669163  49.4725292
  19.9698480  41.0731938  49.6331259  15.9957931  40.3376251  51.2651976
  15.1989094  40.4494946  51.7835472  15.7683523  40.6762904  50.3992867
  21.5411616  48.5289062  49.0813471  21.4057291  49.3740598  49.5098319
  22.0821429  48.7308340  48.3179405  14.9941014  46.0464500  49.6541396
  15.5065534  46.8407750  49.8046961  15.6463727  45.3490791  49.5874998
  24.8904080  32.0519624  57.6112365  24.5468349  32.9421266  57.5351475
  25.2583043  31.8621282  56.7481950  24.8554363  42.0428235  46.1184800
  24.3400986  42.8132840  46.3573187  24.5831671  41.3693371  46.7417861
  22.4401474  36.8877936  51.1770038  21.5843070  36.4984786  50.9975677
  22.8528426  36.9669897  50.3169824  23.9700620  34.4224279  55.5761598
  23.4665416  34.3854414  54.7629403  24.2631227  35.3317022  55.6358255
  20.2143506  34.5063009  54.5827780  21.0796503  34.3105818  54.2233669
  20.2821015  34.2773361  55.5097136  29.8288637  44.7960590  48.0537973
  29.0518080  44.4571749  47.6093135  30.5080118  44.8013213  47.3792938
  24.6440666  39.9155327  47.9444581  24.3390802  40.2301476  48.7954724
  25.5971108  39.9936747  47.9871914  23.0887098  46.0745551  49.5937535
  22.5608459  45.3398310  49.2810772  22.5874601  46.8520227  49.3477503
  17.8205825  36.7365217  51.9544146  18.3949577  36.5140398  51.2217339
  18.4076808  36.8053911  52.7072748  18.1475413  38.7669678  45.9740032
  17.3112725  39.1044364  46.2949306  18.0080182  38.6318658  45.0367169
  20.1228493  33.6106466  50.6819216  19.4692905  33.2955483  50.0575831
  20.0808967  32.9882206  51.4079039  21.2339698  43.8925761  42.5972508
  20.3266760  43.6615014  42.7963657  21.7310730  43.0963380  42.7846490
  24.1407777  52.6023268  45.5169194  23.4669476  52.9054965  46.1254152
  24.5273599  53.4052348  45.1674651  23.3566233  40.0988399  55.0066864
  22.4388795  40.3203346  54.8488552  23.7726377  40.1734710  54.1478571
  24.1401281  41.4979815  50.1369544  24.8873100  42.0101212  49.8276666
  24.4092871  41.1763868  50.9973937  22.4127931  43.9938356  47.1196498
  21.5039151  43.7097388  47.2168968  22.4423015  44.4137434  46.2599805
  26.5880118  38.5336931  52.1188333  25.8502875  38.0214317  52.4498576
  26.8406892  38.0937313  51.3071610  26.6891746  31.3113183  52.7130102
  26.9950623  30.4510547  52.4256017  27.4144351  31.9030803  52.5129096
  20.9612825  41.6066976  53.2206293  21.0161435  40.6540813  53.1448770
  20.1504027  41.7626415  53.7047592  22.1104019  45.5347099  44.4584577
  21.6723449  44.8182958  43.9990214  22.8514460  45.7623214  43.8969668
  18.9005185  40.2244036  50.9796672  18.0873051  40.5238207  51.3861864
  19.3964180  39.8299725  51.6971155  18.3919260  37.7962392  56.5957907
  19.0318639  37.6551151  55.8980871  17.5596791  37.5096905  56.2196509
  19.1679564  47.0964822  52.7092900  19.9620163  46.6015142  52.5075475
  18.4571256  46.5682685  52.3460605  15.4762328  41.2407904  48.7852652
  14.5459916  41.1792359  49.0022615  15.5719799  40.7183856  47.9889294
  15.3947877  37.7662717  51.3730894  15.6554694  38.6808050  51.2640055
  16.2165049  37.2987159  51.5227507  22.3398992  52.7702940  47.7316273
  22.5150748  52.2990984  48.5461896  21.6531780  53.3968707  47.9597534
  26.2315247  44.3931481  44.0516634  25.6144417  43.6678309  43.9549687
  25.7631735  45.1540841  43.7083708  18.0213793  38.6116905  43.1737939
  17.1443259  38.4905706  42.8100185  18.4971546  37.8202984  42.9216827
  24.5174369  36.7737825  53.0634664  25.0143068  36.0207787  52.7435735
  23.7461350  36.8102142  52.4977874  25.6004150  45.5309512  50.6373088
  24.6660428  45.6510975  50.4677792  25.7780818  44.6281979  50.3733098
  21.1009338  38.9155208  52.7906349  20.7307125  38.3626248  53.4787255
  21.5968430  38.3113342  52.2381349  28.9876701  41.3726832  51.1723122
  29.4537153  42.2054823  51.0983425  29.4384201  40.9071813  51.8768380
  27.0552932  47.7170653  48.1709274  27.3312776  47.6027247  49.0803148
  26.1857431  47.3188138  48.1321447  26.9593364  33.7407419  55.2114023
  26.0456443  33.9711645  55.3796230  27.3886465  33.8245863  56.0628056
  12.7492487  40.2058761  48.6150844  13.0445928  39.2969439  48.5617898
  11.8480522  40.1846500  48.2931847  16.2786734  38.2814757  54.5978393
  15.5573319  38.8950725  54.4585866  17.0679989  38.8172522  54.5195039
  14.4780328  37.8872858  48.7390169  14.1493034  37.0070237  48.5565275
  14.8319699  37.8320527  49.6266559  17.5922151  38.1745828  49.1065647
  17.9318224  38.7031749  48.3844255  18.0394272  38.5126234  49.8824214
  20.2865592  36.5582879  58.5568715  19.9462413  35.7590692  58.9589395
  19.5804598  36.8584590  57.9845548  20.9382064  33.6432191  57.0096038
  21.7608133  33.1692669  56.8874928  21.1820128  34.4222675  57.5094724
  19.5790298  36.6720450  47.3058940  20.2998661  37.0501702  46.8022657
  18.9555603  37.3909326  47.4093918  23.7221421  37.3765599  48.2417272
  23.9385036  38.2590236  47.9406100  23.2415489  36.9851812  47.5122914
  18.4620643  40.3351312  54.8188017  18.3165223  40.6491615  55.7112298
  17.9845846  40.9536212  54.2658915  20.3217026  37.3253860  54.8668906
  20.3078594  36.4294953  54.5301204  21.0389454  37.3324524  55.5007192
  22.1743156  37.7591200  56.9122034  21.9160934  38.6808271  56.9106364
  21.6428197  37.3621635  57.6022498  19.7253922  36.2068240  50.1356476
  19.8469833  35.2784886  50.3347364  19.4355964  36.2206926  49.2234792
  22.5945112  33.8923150  53.2723196  22.6166809  33.9562484  52.3175176
  23.0113171  33.0527659  53.4663702  28.1064518  50.1808751  46.7909017
  28.8015422  50.8015444  47.0096332  28.4487668  49.3304103  47.0661395
  30.0055941  47.6308457  48.3196348  30.5307265  47.9695730  47.5945668
  29.9178293  46.6955472  48.1359483  18.6983981  47.7922373  48.2272364
  18.8472101  48.4757837  47.5739036  19.5050424  47.7727463  48.7421819
  16.4536613  43.8187550  49.2333432  16.2082655  42.9149880  49.4313643
  16.6232528  43.8204701  48.2912910  15.7232261  39.5515908  46.7319594
  15.0301506  39.6260263  46.0759630  15.4784013  38.7876252  47.2541111
  24.3945918  31.1111509  54.1359085  24.6747671  30.4434698  54.7619511
  25.1796524  31.3040605  53.6233748  22.1979386  50.2870503  45.6984111
  21.6253353  50.9060690  45.2454583  22.7712180  50.8369865  46.2324033
  25.4176646  50.5707653  46.8292693  26.3507319  50.5053215  47.0325569
  25.3299859  51.4063920  46.3707226  28.0464662  49.8873524  43.7896641
  27.9678294  49.5533387  44.6832399  28.8674329  50.3795292  43.7888113
  22.5826185  41.6231316  43.0400163  23.5285289  41.4937524  43.1088581
  22.2040429  40.8845978  43.5169592  28.5548069  33.2887322  53.0027055
  28.3572890  32.9802410  53.8870387  29.1647775  34.0148961  53.1324985
  20.7669102  39.5481292  42.9755049  19.8600557  39.2514405  43.0517762
  21.0445083  39.2511110  42.1089335  22.3831167  34.0918182  49.1299290
  21.5731896  33.7465267  49.5054536  23.0715584  33.7825726  49.7186902
  24.3121716  33.1696229  50.7523587  24.8652754  33.5891682  51.4113610
  24.5491802  32.2431977  50.7946543  19.5367886  36.4068228  43.1167028
  20.3987050  36.7323126  43.3762845  19.7218230  35.6199723  42.6040094
  27.6900523  35.2796754  50.2602251  27.1099192  35.9381558  49.8780303
  27.4236455  34.4574099  49.8489668  26.1404089  34.6801812  52.4623571
  26.6403868  34.7918346  51.6537890  26.7839697  34.3762865  53.1024380
  26.4725401  37.4396844  49.3158599  25.5851256  37.7246495  49.0978794
  26.8879390  37.2790608  48.4685876  29.8239937  37.4643365  53.0312938
  30.6000327  37.9539818  53.3037555  29.0988071  37.8901420  53.4884808
  25.6168614  47.2041519  43.4106619  26.3204464  47.4091522  44.0264275
  24.8931263  47.7718281  43.6755703  26.4466425  42.9551380  49.5308889
  26.3901626  43.4119932  48.6916522  26.9994767  42.1942065  49.3531732
  30.2571230  38.7441112  50.3559009  30.0008165  38.3437748  51.1867216
  29.6324098  39.4584906  50.2309148  27.5255312  47.6424048  45.4605079
  28.3600916  47.2105247  45.2782554  27.3639655  47.4706062  46.3881974
  27.1801204  44.1456162  46.8261418  27.1250008  43.9800433  45.8849863
  26.5547259  44.8532194  46.9823608  20.4897329  33.6464271  46.4046737
  20.4775999  34.5906110  46.5615008  21.3820751  33.4634416  46.1106198
  24.3049449  30.2407047  50.6592674  23.5381845  29.6865534  50.8049356
  24.7160154  30.3128916  51.5206825  28.8607547  53.9408823  43.1737939
  27.9837014  53.8197624  42.8100185  29.3365300  53.1494901  42.9216827
  31.6062856  54.8773210  42.9755049  30.6994312  54.5806323  43.0517762
  31.8838837  54.5803028  42.1089335  30.3761641  51.7360145  43.1167028
  31.2380805  52.0615044  43.3762845  30.5611985  50.9491641  42.6040094
  31.3291084  48.9756188  46.4046737  31.3169754  49.9198028  46.5615008
  32.2214506  48.7926334  46.1106198   7.1428601   6.3134891  38.2063978
   6.5793466   6.2224828  37.4380266   7.0280996   5.4934796  38.6866471
  12.7228160   9.9805859  33.5178443  12.0716140  10.5659939  33.1312457
  13.5172523  10.5112054  33.5773481   6.6483787   7.0694996  33.9165577
   7.4214663   6.5223983  33.7778453   7.0009186   7.9339245  34.1280039
   8.9850065   3.2287662  31.5484027   9.2375585   2.7069183  30.7867490
   8.0474624   3.0653808  31.6510711  14.0293348   2.2323440  39.3558771
  14.8156437   1.8142864  39.0049188  14.2932052   3.1369533  39.5240419
  14.2003425   7.6696291  34.0547427  13.5649258   7.7430917  34.7668332
  13.8700831   8.2589890  33.3766507  19.4301775   2.1698674  40.2591749
  20.1626947   1.5997890  40.4929579  18.6741130   1.7820274  40.6998255
   8.7046353   5.1315768  33.7508402   8.5882612   4.4560671  34.4189487
   8.8148613   4.6448142  32.9340555  11.0477894   4.5925915  37.4555092
  10.6836102   4.0656536  38.1668013  11.9045010   4.2024384  37.2821577
  10.6672602   2.0773472  33.4363107  10.5472227   2.5230523  34.2748587
   9.9725191   2.4258790  32.8776645   8.4279494  14.8477114  37.0853238
   8.3503524  15.7984939  37.1641719   7.8241138  14.5022987  37.7428164
  16.3657668   2.5494946  34.2643441  17.2775525   2.7822332  34.0891138
  15.8567315   3.1331990  33.7018520  14.9727251   7.5320764  41.6557022
  14.3436113   7.6966478  40.9533090  14.5852913   7.9462374  42.4267986
  18.8516483   8.4675202  39.0101386  18.1667521   8.8474103  38.4598419
  18.9360332   9.0770528  39.7433334  10.5255213   7.2695172  38.9207107
  10.9893558   7.5482875  38.1311730  10.2612011   6.3678617  38.7380198
   9.4624099   3.3918324  35.7296673  10.1648142   3.8439368  36.1970599
   9.1304727   2.7502143  36.3576566  17.2213242   8.9907116  43.7819087
  18.0430686   8.5887304  43.5001769  17.2175645   8.8875350  44.7335203
  25.3119235   5.3345865  40.1304058  24.5582944   4.7653263  39.9748063
  25.4466776   5.3008529  41.0774693  10.7017863  10.2059267  35.8058778
  10.5663538  11.0510803  36.2343626  11.2427676  10.4078545  35.0424712
   4.1547261   7.7234705  36.3786703   4.6671781   8.5177955  36.5292268
   4.8069973   7.0260996  36.3120304   5.9642145  10.8400461  38.4609456
   6.1408774  11.7618426  38.2730440   6.7598979  10.5258881  38.8903836
  14.0160610   3.7198440  32.8430106  13.5007233   4.4903045  33.0818494
  13.7437918   3.0463576  33.4663168  18.9894884   6.4730795  34.7783280
  18.2124326   6.1341954  34.3338442  19.6686365   6.4783418  34.1038245
  13.8046913   1.5925532  34.6689888  13.4997048   1.9071681  35.5200031
  14.7577355   1.6706952  34.7117221  12.2493345   7.7515755  36.3182842
  11.7214706   7.0168515  36.0056079  11.7480847   8.5290432  36.0722810
  17.2286191   5.9464776  41.4349888  16.5709865   6.6364037  41.5230017
  18.0326590   6.3361208  41.7783874  16.0391649   4.3009149  39.4853830
  16.5523531   4.9339140  39.9875539  16.6892873   3.7010344  39.1197190
  10.3945945   5.5695966  29.3217815   9.4873006   5.3385219  29.5208964
  10.8916977   4.7733585  29.5091796  13.3014024  14.2793473  32.2414501
  12.6275722  14.5825170  32.8499459  13.6879846  15.0822553  31.8919958
  13.3007528   3.1750020  36.8614850  14.0479347   3.6871417  36.5521972
  13.5699118   2.8534073  37.7219244  11.5734178   5.6708561  33.8441805
  10.6645397   5.3867593  33.9414274  11.6029262   6.0907639  32.9845112
  16.8053446   9.2815150  37.6132972  16.3515773   8.4406060  37.6698163
  16.1747412   9.9176548  37.9507752  15.7486365   0.2107136  38.8433640
  15.0109122  -0.3015478  39.1743882  16.0013139  -0.2292482  38.0316917
  15.2486385  11.1191647  38.5482790  15.5409359  11.6796704  37.8295156
  15.7585005  11.4120208  39.3035950  11.2710266   7.2117304  31.1829883
  10.8329696   6.4953163  30.7235521  12.0120707   7.4393419  30.6214975
  10.2120010  11.8971998  39.6376244  10.1696189  12.1232844  38.7084776
  11.1282709  11.6635372  39.7862045  19.3883381   5.4874501  37.2406202
  19.2501279   5.6776097  36.3127391  19.0319600   6.2493884  37.6974253
  19.4152760   7.5551028  42.2517473  19.8489267   7.4626317  43.1000527
  20.1284341   7.5308529  41.6137489   8.3285811   8.7735027  39.4338206
   9.1226409   8.2785347  39.2320781   7.6177503   8.2452890  39.0705912
  13.1480655  11.1553122  43.7850574  13.2017678  11.7244059  44.5528290
  12.2795437  11.3255007  43.4204611  20.2768310   7.5974729  44.7850359
  20.4704200   8.5020539  45.0309634  20.1768928   7.1382148  45.6188944
  11.5005239  14.4473145  34.4561580  11.6756994  13.9761189  35.2707203
  10.8138027  15.0738912  34.6842841  12.4562302   8.7245652  40.5024881
  12.1212135   8.6846422  41.3982531  11.9566248   8.0590367  40.0295291
  15.3921494   6.0701686  30.7761941  14.7750664   5.3448514  30.6794994
  14.9237982   6.8311046  30.4329015   6.0666324  17.5962508  41.2301440
   6.3062922  18.2281032  41.9080459   5.2235521  17.2450548  41.5166799
  10.5794186  13.4041631  43.6342944  10.5064357  14.2096602  44.1462249
  10.1371579  13.6033596  42.8090965  10.3683966  12.6413401  37.1445766
   9.5851487  13.1835081  37.2383990  11.0676711  13.1587380  37.5440007
  21.5310373   4.1548396  41.4298263  21.5200249   5.0373111  41.0592196
  20.6627753   3.8019946  41.2352800  13.0392869  13.3028465  45.7901103
  13.7520842  13.9375929  45.7177004  12.5482898  13.3992331  44.9741105
  14.7610396   7.2079717  37.3618394  13.8266675   7.3281180  37.1923099
  14.9387065   6.3052184  37.0978404  18.1482948   3.0497037  37.8968429
  18.6143400   3.8825028  37.8228731  18.5990448   2.5842018  38.6013687
  16.2159179   9.3940858  34.8954581  16.4919023   9.2797452  35.8048455
  15.3463678   8.9958343  34.8566754  12.8513243  13.6427209  38.5387394
  13.0335637  12.8248865  39.0015147  13.6746229  13.8594901  38.1012284
  13.1855408  12.5695394  35.8002443  13.7143175  12.0587848  35.1872605
  13.4483628  12.2537924  36.6647976   6.5411156  13.6210510  38.5600219
   5.8721532  14.1056638  38.0764259   6.4024026  13.8679731  39.4743597
  10.6816425  15.6554254  45.1582877  11.2334733  15.8185875  45.9231962
  11.0222618  16.2458692  44.4862902  13.8184812  13.6036230  42.1446559
  13.6935952  12.8025969  41.6357505  14.4763903  14.0982423  41.6560529
  15.8819721  11.4045250  43.7726109  14.9350056  11.2850601  43.7004436
  16.2302494  10.5167748  43.8552371  12.8866154  11.1997966  39.9730461
  12.7391116  10.2714673  40.1538032  13.7119647  11.2218057  39.4887537
  16.4900276  12.0226525  41.0595334  17.4146823  11.8169386  40.9219785
  16.3215579  11.7742926  41.9684676  16.2795592  12.5412192  36.4157426
  16.4532469  11.9758614  35.6631278  16.7724483  13.3413087  36.2336916
  22.1334983   5.3048615  38.0347725  22.5766129   4.5555940  37.6366849
  21.2561493   5.2958751  37.6521457  17.2670764  11.8578956  33.5154324
  17.9621669  12.4785649  33.7341639  17.6093914  11.0074308  33.7906702
  19.1662187   9.3078662  35.0441655  19.6913512   9.6465935  34.3190975
  19.0784540   8.3725677  34.8604789  10.8502848  15.3750645  39.4036908
  10.4107839  14.8827024  40.0969765  11.6010965  14.8323613  39.1628983
   3.3295187  11.5662186  39.4061536   4.1553207  11.2665958  39.0260180
   2.9789239  10.7969809  39.8551325   8.2976720  10.9188654  41.4759210
   7.6756730  10.2559359  41.1761437   8.9681587  10.9449786  40.7932857
   7.8590227   9.4692578  34.9517670   8.0078348  10.1528042  34.2984343
   8.6656671   9.4497668  35.4667126  21.6767848   6.7753853  40.4270173
  22.5114739   7.2143657  40.5907733  21.8126977   6.2992506  39.6078419
  11.3585633  11.9640708  32.4229418  10.7859600  12.5830895  31.9699889
  11.9318426  12.5140070  32.9569340  14.5782893  12.2477858  33.5538000
  15.5113566  12.1823420  33.7570875  14.4906105  13.0834125  33.0952533
  17.2070909  11.5643729  30.5141947  17.1284541  11.2303592  31.4077705
  18.0280576  12.0565496  30.5133420  11.7432431   3.3001521  29.7645470
  12.6891536   3.1707729  29.8333888  11.3646676   2.5616183  30.2414898
  25.7225650   5.4921475  42.8624303  26.4529039   5.2306763  43.4232006
  25.1132596   4.7550197  42.9026371  23.8040947   3.6329337  43.4598754
  23.0774111   3.4985302  42.8515246  23.3888234   3.9406166  44.2655472
  15.6331648  -0.8832951  36.0403906  14.7457503  -0.5983300  35.8224101
  16.0485637  -1.0439187  35.1931183  18.9846184  -0.8586430  39.7558245
  19.7606574  -0.3689977  40.0282862  18.2594318  -0.4328376  40.2130114
  21.4218742  -0.1458810  40.8132186  22.0163233  -0.3863075  40.1025494
  21.4945326  -0.8651680  41.4405722   3.6415898  13.6974800  41.1275350
   3.5070366  12.9375201  40.5613348   3.2247960  14.4215700  40.6604139
  14.7774861   8.8811724  30.1351926  15.4810711   9.0861726  30.7509581
  14.0537510   9.4488486  30.4001009  15.6072671   4.6321585  36.2554196
  15.5507873   5.0890137  35.4161828  16.1601014   3.8712270  36.0777039
  19.4177477   0.4211317  37.0804315  19.1614411   0.0207953  37.9112523
  18.7930345   1.1355111  36.9554455  23.7289815   3.1607390  39.5875607
  23.1689373   3.2300580  40.3607169  23.1233318   2.9848375  38.8675103
   6.7985024  14.5944117  41.3393793   6.6817408  15.5389550  41.2372483
   5.9777470  14.2917679  41.7279592  16.6861558   9.3194253  32.1850386
  17.5207162   8.8875452  32.0027861  16.5245901   9.1476267  33.1127280
  16.3407451   5.8226366  33.5506725  16.2856254   5.6570638  32.6095169
  15.7153506   6.5302399  33.7068915   7.8239538  15.2472379  44.5549722
   8.7266785  15.2795990  44.8716216   7.5976908  14.3172830  44.5696057
   9.5793140  14.0003366  41.2159800   8.6288771  14.0005227  41.1024172
   9.8825626  13.2536100  40.6995835  25.3145834  19.8363904  42.2805563
  25.9524243  19.7170652  41.5768903  25.1966676  20.7844748  42.3393515
  22.1235540  19.7891332  42.2167087  21.7854051  19.6732397  41.3287622
  22.9925308  19.3882497  42.1968093  17.9822356  21.6426809  38.2063978
  17.4187221  21.5516746  37.4380266  17.8674751  20.8226713  38.6866471
  22.6055323  20.9426184  48.1753293  22.5943964  20.5478982  47.3033796
  22.7675962  20.2092257  48.7687064  15.5286787  23.1378000  41.0448199
  16.3208079  22.7968825  40.6294498  15.7683438  23.2472975  41.9650352
  17.4877541  22.3986914  33.9165577  18.2608417  21.8515901  33.7778453
  17.8402940  23.2631163  34.1280039  19.3262584  23.7263296  47.1232477
  19.0352450  24.6308927  47.0079143  19.9619568  23.7679824  47.8376546
  20.2518791  21.1040144  43.7133836  20.8482363  20.8796167  42.9990799
  20.3093762  20.3624890  44.3159284  19.8243819  18.5579580  31.5484027
  20.0769340  18.0361101  30.7867490  18.8868378  18.3945725  31.6510711
  24.8687102  17.5615358  39.3558771  25.6550191  17.1434781  39.0049188
  25.1325806  18.4661450  39.5240419  30.2695529  17.4990591  40.2591749
  31.0020701  16.9289808  40.4929579  29.5134885  17.1112192  40.6998255
  19.5440108  20.4607686  33.7508402  19.4276366  19.7852589  34.4189487
  19.6542368  19.9740060  32.9340555  21.8871649  19.9217833  37.4555092
  21.5229856  19.3948454  38.1668013  22.7438765  19.5316302  37.2821577
  27.7920949  11.2112165  44.7186358  27.4604274  12.0807576  44.4947573
  27.1966563  10.8948449  45.3980388  21.5277136  14.9507733  32.4516440
  21.6951538  15.8187969  32.8186911  21.3374305  15.1135014  31.5277729
  24.2852469  23.4124711  44.1182270  23.9853192  24.3149750  44.0098078
  23.9403529  23.1456895  44.9703423  17.7364951  19.8638508  40.1518975
  16.8115447  19.7314722  40.3596667  17.9849364  20.6432728  40.6488917
  27.6849613  15.9307252  41.7979708  26.7766490  15.8622660  41.5038469
  27.6337209  16.4079197  42.6261533  21.5066357  17.4065390  33.4363107
  21.3865982  17.8522441  34.2748587  20.8118945  17.7550708  32.8776645
  15.0973762  19.5071782  40.9862764  15.2266143  19.7606261  41.9002176
  14.4171213  20.0999490  40.6667419  19.2673249  30.1769032  37.0853238
  19.1897279  31.1276857  37.1641719  18.6634892  29.8314904  37.7428164
  21.7590479  17.3496897  49.7414605  20.9823813  17.9090817  49.7317470
  22.3981042  17.8353680  50.2629475  29.5511259  14.1323690  43.5757582
  28.9085639  14.4256223  42.9297376  29.0466188  14.0176610  44.3810778
  20.0136851  20.1582351  49.3032572  20.7551535  20.6967395  49.0267396
  19.3073836  20.7848639  49.4604124  25.4892191  22.3011491  47.9004734
  25.8975547  21.8593902  47.1559366  24.7669452  21.7264119  48.1538926
  21.8423261  17.2384098  45.2738290  22.6884456  17.6623511  45.4172939
  21.7821898  16.5817722  45.9676854  25.8121005  22.8612682  41.6557022
  25.1829868  23.0258396  40.9533090  25.4246667  23.2754291  42.4267986
  29.6910237  23.7967120  39.0101386  29.0061275  24.1766021  38.4598419
  29.7754086  24.4062446  39.7433334  24.9922706  14.8988466  46.9319464
  24.7483638  15.6530527  46.3953740  25.2682636  15.2773814  47.7666711
  26.9461169  21.4427079  45.6096730  27.1578064  22.0858838  44.9331111
  26.8990917  20.6089395  45.1418660  24.5487398  14.0544899  42.5133302
  23.6871877  14.3526153  42.8050039  24.5749832  14.2715298  41.5814334
  21.3648967  22.5987090  38.9207107  21.8287313  22.8774793  38.1311730
  21.1005765  21.6970534  38.7380198  18.2573048  22.1458571  41.8586871
  18.8274405  22.5745840  41.2204355  18.8481160  21.8641156  42.5571056
  20.3017853  18.7210242  35.7296673  21.0041896  19.1731286  36.1970599
  19.9698482  18.0794061  36.3576566  18.7498215  17.3121999  50.1047882
  18.1196875  17.9938280  50.3383279  18.6434303  17.2005080  49.1601020
  14.0443187  16.9793795  41.0313806  13.2542241  17.2351323  40.5553917
  14.5354434  17.7942133  41.1365847  28.0606997  24.3199034  43.7819087
  28.8824440  23.9179221  43.5001769  28.0569400  24.2167268  44.7335203
  15.9957932  17.3438374  37.9897283  15.1989096  17.4557068  38.5080779
  15.7683525  17.6825026  37.1238173  21.8263600  23.8683077  45.9379798
  21.8908033  24.3303484  46.7737969  21.1174524  23.2380442  46.0662107
  12.3280890  17.2324285  43.4628797  12.5788928  18.1171295  43.7286373
  12.8640438  17.0528887  42.6903889  36.1512990  20.6637782  40.1304058
  35.3976698  20.0945181  39.9748063  36.2860531  20.6300447  41.0774693
  14.9941015  23.0526623  36.3786703  15.5065536  23.8469873  36.5292268
  15.6463728  22.3552913  36.3120304  16.8035900  26.1692379  38.4609456
  16.9802528  27.0910344  38.2730440  17.5992733  25.8550798  38.8903836
  16.0888256  18.2157011  48.3371619  15.9741772  17.3142268  48.6378718
  15.2332774  18.4620708  47.9856436  23.1680094  26.1574751  49.9359120
  22.7243948  25.3711130  49.6180024  23.8297308  26.3453902  49.2703011
  17.9267215  27.6870553  44.4619798  18.4774640  27.5587616  43.6896792
  17.0878691  27.9865442  44.1114691  25.2661332  26.4377551  47.9640521
  25.2479808  27.2586432  47.4720790  26.1881252  26.3131626  48.1890662
  21.7234386  23.9521681  48.8064030  22.2562723  23.1909969  48.5763338
  21.1948467  23.6595332  49.5488184  24.8904081   9.0581747  44.3357671
  24.5468351   9.9483388  44.2596782  25.2583044   8.8683404  43.4727256
  12.9589932  21.3815277  37.1546273  13.7965154  21.7912285  36.9379981
  13.1368200  20.4414719  37.1246467  22.4401475  13.8940059  37.9015345
  21.5843071  13.5046909  37.7220984  22.8528427  13.9732019  37.0415130
  23.9700622  11.4286402  42.3006905  23.4665417  11.3916537  41.4874710
  24.2631229  12.3379144  42.3603561  20.2143508  11.5125131  41.3073086
  21.0796504  11.3167940  40.9478976  20.2821016  11.2835483  42.2342443
  28.0679945  21.2756694  41.4349888  27.4103620  21.9655955  41.5230017
  28.8720344  21.6653126  41.7783874  17.8205827  13.7427339  38.6789453
  18.3949579  13.5202521  37.9462646  18.4076809  13.8116034  39.4318054
  18.1475414  15.7731800  32.6985338  17.3112726  16.1106487  33.0194613
  18.0080183  15.6380780  31.7612475  20.1228494  10.6168588  37.4064523
  19.4692907  10.3017605  36.7821137  20.0808969   9.9944329  38.1324345
  21.2339699  20.8987883  29.3217815  20.3266761  20.6677137  29.5208964
  21.7310731  20.1025503  29.5091796  23.3566235  17.1050522  41.7312170
  22.4388796  17.3265469  41.5733858  23.7726378  17.1796832  40.8723877
  26.5880120  15.5399054  38.8433640  25.8502876  15.0276440  39.1743882
  26.8406893  15.0999435  38.0316917  26.6891747   8.3175306  39.4375409
  26.9950624   7.4572669  39.1501324  27.4144352   8.9092926  39.2374403
  12.9816103  18.7205992  37.8257007  12.7840503  18.1275353  37.1008073
  12.4262767  18.4158203  38.5432946  20.9612827  18.6129099  39.9451600
  21.0161436  17.6602935  39.8694077  20.1504029  18.7688538  40.4292898
  18.9005187  17.2306159  37.7041979  18.0873052  17.5300329  38.1107171
  19.3964181  16.8361847  38.4216461  21.0513765  27.2263916  39.6376244
  21.0089943  27.4524762  38.7084776  21.9676463  26.9927290  39.7862045
  24.4979398  17.6947983  46.5356873  24.8528786  17.9219456  47.3951339
  25.1451530  18.0266360  45.9134128  18.3919261  14.8024514  43.3203214
  19.0318641  14.6613273  42.6226177  17.5596792  14.5159028  42.9441816
  30.2546515  22.8842946  42.2517473  30.6883022  22.7918235  43.1000527
  30.9678096  22.8600446  41.6137489  19.1679565  24.1026945  39.4338206
  19.9620164  23.6077265  39.2320781  18.4571258  23.5744808  39.0705912
  23.9874410  26.4845040  43.7850574  24.0411432  27.0535976  44.5528290
  23.1189191  26.6546925  43.4204611  15.4762329  18.2470026  35.5097959
  14.5459917  18.1854482  35.7267921  15.5719801  17.7245979  34.7134600
  15.3947878  14.7724839  38.0976201  15.6554695  15.6870172  37.9885361
  16.2165050  14.3049282  38.2472813  16.8672803  16.1862596  45.2675025
  17.5395857  15.9779958  44.6187674  16.0402590  15.9884682  44.8280258
  31.1162064  22.9266647  44.7850359  31.3097955  23.8312457  45.0309634
  31.0162683  22.4674066  45.6188944  22.7698375  12.8124537  47.2840686
  22.1226290  13.5114487  47.1905162  23.5399391  13.2460681  47.6516934
  26.1777173  23.0773389  50.3591239  26.0262680  22.8483941  49.4421323
  26.1681853  24.0343991  50.3722584  22.9462510  20.6505302  45.3437506
  23.8754570  20.8016462  45.1706473  22.5253540  20.7389323  44.4886152
  21.7450841  24.6755967  43.1136043  21.6061927  24.3074751  43.9861982
  20.9565438  25.1903606  42.9420001  23.2956056  24.0537569  40.5024881
  22.9605889  24.0138339  41.3982531  22.7960002  23.3882285  40.0295291
  17.2700300  19.4605199  46.0277462  17.1320098  18.7285438  46.6289001
  18.1805224  19.3714099  45.7461650  19.8982601  19.1725159  45.5161142
  20.6082220  18.5318351  45.4747760  19.8551909  19.4238053  46.4387323
  27.8869380  26.1092512  48.4367721  27.8281926  25.4251732  47.7698304
  28.2888898  26.8511502  47.9848347  18.6111535  16.1590376  47.3356781
  18.0748892  15.7081115  47.9878378  18.0228244  16.2936285  46.5927246
  16.9060079  32.9254426  41.2301440  17.1456677  33.5572950  41.9080459
  16.0629275  32.5742466  41.5166799  18.0213794  15.6179028  29.8983245
  17.1443260  15.4967829  29.5345492  18.4971547  14.8265106  29.6462134
  27.8886787  24.0732096  46.6681701  27.0013566  23.7358018  46.7908100
  28.4585338  23.3415127  46.9050466   9.5415934  20.4056188  39.9924752
  10.2286974  20.0917918  39.4045768   9.3864063  21.3097552  39.7192004
  14.3450656  15.2946384  44.4209776  14.2608845  14.6872054  43.6860186
  13.5233363  15.7855402  44.4219272  21.4187940  28.7333548  43.6342944
  21.3458112  29.5388520  44.1462249  20.9765334  28.9325514  42.8090965
  24.5174370  13.7799948  39.7879971  25.0143070  13.0269910  39.4681041
  23.7461352  13.8164264  39.2223180  32.3704128  19.4840313  41.4298263
  32.3594004  20.3665029  41.0592196  31.5021507  19.1311864  41.2352800
  23.8786624  28.6320382  45.7901103  24.5914596  29.2667847  45.7177004
  23.3876653  28.7284248  44.9741105  21.1009339  15.9217331  39.5151656
  20.7307126  15.3688371  40.2032561  21.5968431  15.3175464  38.9626656
  18.9298537  26.3814826  46.6106674  19.6307997  27.0151309  46.7636068
  18.4593652  26.7229557  45.8502313  26.9593365  10.7469541  41.9359330
  26.0456445  10.9773768  42.1041537  27.3886466  10.8307985  42.7873362
  26.7299823  18.9359433  44.4359224  26.0771274  19.1835341  43.7811677
  27.1080203  18.1223571  44.1021701  22.7787396  19.6779244  50.9225261
  22.1028033  19.5773374  51.5927636  23.6015030  19.5218458  51.3861258
  14.5266256  25.9151181  43.5437776  15.1119692  25.1694869  43.6765680
  14.3291094  26.2255137  44.4274440  17.3804911  28.9502428  38.5600219
  16.7115286  29.4348556  38.0764259  17.2417780  29.1971649  39.4743597
   9.1183910  18.4856781  42.2642219   9.1568010  17.9520372  43.0579338
   8.6124203  17.9591986  41.6453197  21.5210179  30.9846172  45.1582877
  22.0728487  31.1477793  45.9231962  21.8616373  31.5750609  44.4862902
  16.4974673  13.3321321  45.7604762  16.5615999  14.1936152  45.3482159
  16.4341793  12.7195323  45.0277120  26.3721054  25.8107429  51.0131531
  26.9160958  26.4237387  50.5186486  25.7907899  26.3687008  51.5298544
  12.7492488  17.2120883  35.3396151  13.0445929  16.3031562  35.2863205
  11.8480524  17.1908623  35.0177153  24.6578567  28.9328147  42.1446559
  24.5329706  28.1317887  41.6357505  25.3157658  29.4274341  41.6560529
  16.2786735  15.2876880  41.3223699  15.5573321  15.9012847  41.1831173
  17.0679991  15.8234645  41.2440345  26.7213475  26.7337167  43.7726109
  25.7743811  26.6142518  43.7004436  27.0696248  25.8459665  43.8552371
  19.0813048  12.6231306  47.5964351  19.6047450  12.8693603  48.3590660
  18.8625382  13.4551341  47.1767488  14.4780329  14.8934981  35.4635476
  14.1493036  14.0132360  35.2810582  14.8319700  14.8382649  36.3511865
  23.7259908  26.5289884  39.9730461  23.5784871  25.6006591  40.1538032
  24.5513402  26.5509974  39.4887537  17.5922153  15.1807951  35.8310954
  17.9318225  15.7093872  35.1089562  18.0394273  15.5188357  36.6069520
  27.3294030  27.3518442  41.0595334  28.2540578  27.1461304  40.9219785
  27.1609334  27.1034843  41.9684676  20.2865593  13.5645001  45.2814022
  19.9462414  12.7652814  45.6834702  19.5804600  13.8646712  44.7090855
  20.9382065  10.6494314  43.7341345  21.7608135  10.1754792  43.6120235
  21.1820129  11.4284797  44.2340031  19.5790300  13.6782572  34.0304246
  20.2998662  14.0563825  33.5267963  18.9555604  14.3971449  34.1339224
  23.7221423  14.3827721  34.9662579  23.9385037  15.2652359  34.6651407
  23.2415490  13.9913935  34.2368221  18.4620644  17.3413434  41.5433323
  18.3165225  17.6553737  42.4357605  17.9845848  17.9598335  40.9904222
  20.3217027  14.3315982  41.5914213  20.3078596  13.4357076  41.2546511
  21.0389455  14.3386646  42.2252499  22.1743158  14.7653323  43.6367340
  21.9160935  15.6870393  43.6351671  21.6428198  14.3683757  44.3267804
  12.9366306  19.8818779  44.4820985  12.3919774  20.6578587  44.6141259
  13.8145656  20.2289583  44.3240106  19.7253923  13.2130363  36.8601783
  19.8469834  12.2847009  37.0592671  19.4355965  13.2269049  35.9480098
  22.5945113  10.8985273  39.9968503  22.6166810  10.9624606  39.0420482
  23.0113172  10.0589782  40.1909009  32.9728738  20.6340533  38.0347725
  33.4159884  19.8847858  37.6366849  32.0955248  20.6250669  37.6521457
  13.7232328  19.0088675  47.3751141  12.9814064  19.1571310  47.9615772
  13.4025072  19.2696941  46.5117891  21.6675991  28.5504653  47.1731531
  21.9763117  28.3053800  48.0454231  22.4651473  28.7551292  46.6850402
  21.6896603  30.7042563  39.4036908  21.2501593  30.2118942  40.0969765
  22.4404720  30.1615531  39.1628983  14.1688942  26.8954104  39.4061536
  14.9946962  26.5957876  39.0260180  13.8182994  26.1261726  39.8551325
  19.1370475  26.2480572  41.4759210  18.5150484  25.5851277  41.1761437
  19.8075342  26.2741704  40.7932857  12.3697547  24.8140430  40.3650470
  11.5329455  24.3862605  40.1834471  12.3421192  25.0072874  41.3021261
  29.6949848  25.2703483  50.3492853  28.9045392  25.2527622  49.8097352
  29.4583203  25.8091777  51.1041889  29.8147723  22.1195950  47.6625581
  29.8645728  21.9545957  48.6041104  29.7061646  21.2523209  47.2723462
  18.6983982  24.7984495  34.9517670  18.8472102  25.4819960  34.2984343
  19.5050425  24.7789585  35.4667126  27.1051485  18.1026878  48.9784888
  28.0061348  17.9633343  48.6868886  27.1799460  18.2681332  49.9183065
  21.4394291  15.4793732  47.8238074  20.5697600  15.7727298  47.5520663
  21.6753771  16.0634177  48.5445338  31.3165920  24.5392891  47.9067603
  31.0250728  24.9022872  48.7431064  30.7038051  23.8259899  47.7280935
  32.5161602  22.1045771  40.4270173  33.3508494  22.5435575  40.5907733
  32.6520731  21.6284424  39.6078419  29.5653108  19.6625506  46.3747661
  30.0407230  19.8553152  45.5666512  28.6418674  19.7184692  46.1291044
  16.4536615  20.8249673  35.9578739  16.2082657  19.9212003  36.1558949
  16.6232529  20.8266823  35.0158217  24.1433325  11.6973349  45.3403495
  24.6615269  12.4334376  45.0149983  23.7888457  12.0037343  46.1750254
  15.7232262  16.5578031  33.4564901  15.0301507  16.6322386  32.8004936
  15.4784014  15.7938374  33.9786417  24.3945919   8.1173632  40.8604391
  24.6747673   7.4496821  41.4864818  25.1796526   8.3102727  40.3479055
  28.2654777  16.5391266  44.6075966  29.2172200  16.6389364  44.6288190
  28.0958228  15.7469534  45.1174051  26.2869157  13.6246849  44.7935367
  25.6919089  13.9051862  44.0981856  26.0018853  14.1140750  45.5652108
  30.7442855  19.7597386  43.7218266  30.7119175  18.8213386  43.9077950
  31.3543479  19.8381422  42.9884091  22.5826186  18.6293439  29.7645470
  23.5285291  18.4999647  29.8333888  22.2040431  17.8908100  30.2414898
  30.8937343  16.5508429  43.7676549  30.3776392  15.7666886  43.5806478
  31.7777292  16.2227146  43.9323069  28.5548070  10.2949445  39.7272362
  28.3572891   9.9864533  40.6115694  29.1647776  11.0211083  39.8570292
  36.5619405  20.8213392  42.8624303  37.2922793  20.5598681  43.4232006
  35.9526350  20.0842114  42.9026371  34.6434702  18.9621255  43.4598754
  33.9167865  18.8277220  42.8515246  34.2281989  19.2698084  44.2655472
  22.4664878  22.6811185  51.2246127  23.3867888  22.8589784  51.4186174
  22.4314461  21.7367230  51.0725826  20.7669103  16.5543415  29.7000355
  19.8600558  16.2576528  29.7763069  21.0445084  16.2573233  28.8334642
  11.6847043  17.8749778  40.1499402  11.3649828  17.0215087  39.8573776
  11.1380472  18.0898356  40.9057369  15.4626951  20.5912219  43.8668908
  15.6812961  21.5229327  43.8856942  15.8752725  20.2320194  44.6523712
  22.3831169  11.0980305  35.8544597  21.5731897  10.7527390  36.2299843
  23.0715586  10.7887848  36.4432208  24.3121717  10.1758351  37.4768893
  24.8652756  10.5953805  38.1358916  24.5491803   9.2494100  37.5191849
  19.5367888  13.4130350  29.8412334  20.3987052  13.7385248  30.1008152
  19.7218232  12.6261846  29.3285400  11.5535303  21.4952690  42.1192523
  10.8598775  21.0806643  41.6062478  12.3008294  21.5373226  41.5225942
  27.6900524  12.2858877  36.9847557  27.1099193  12.9443681  36.6025610
  27.4236457  11.4636221  36.5734975  26.1404090  11.6863934  39.1868878
  26.6403869  11.7980469  38.3783197  26.7839698  11.3824987  39.8269686
  20.1986086  19.5942564  52.0736719  19.7153168  20.3942924  52.2800608
  20.2847025  19.6050509  51.1204163  13.4672046  21.4270944  39.9958538
  13.4442734  21.5258631  39.0440421  13.7772682  22.2736094  40.3175704
  16.1259424  23.4847099  44.1105153  17.0802677  23.4531041  44.0435084
  15.9271947  23.0237722  44.9255378  16.7158806  22.0548215  46.6775950
  17.5351695  22.5492293  46.7010788  16.9895614  21.1380183  46.6493518
  26.4725402  14.4458967  36.0403906  25.5851257  14.7308618  35.8224101
  26.8879391  14.2852730  35.1931183  29.8239938  14.4705488  39.7558245
  30.6000328  14.9601940  40.0282862  29.0988072  14.8963542  40.2130114
  32.2612497  15.1833107  40.8132186  32.8556988  14.9428843  40.1025494
  32.3339081  14.4640238  41.4405722  14.4809653  29.0266718  41.1275350
  14.3464120  28.2667119  40.5613348  14.0641715  29.7507618  40.6604139
  34.5683570  18.4899308  39.5875607  34.0083128  18.5592497  40.3607169
  33.9627073  18.3140293  38.8675103  17.6378778  29.9236035  41.3393793
  17.5211163  30.8681468  41.2372483  16.8171225  29.6209597  41.7279592
  11.9693720  16.3886349  47.3768147  12.6152584  15.8785303  47.8655372
  11.7610871  17.1255030  47.9511573  24.4947112  23.4567196  52.8760288
  25.3638272  23.6307848  52.5146923  24.0153864  24.2761613  52.7536017
  20.4897331  10.6526393  33.1292043  20.4776000  11.5968233  33.2860314
  21.3820752  10.4696539  32.8351505  18.6633293  30.5764297  44.5549722
  19.5660539  30.6087907  44.8716216  18.4370663  29.6464748  44.5696057
  20.4186895  29.3295284  41.2159800  19.4682526  29.3297145  41.1024172
  20.7219381  28.5828018  40.6995835  24.3049450   7.2469170  37.3837980
  23.5381846   6.6927657  37.5294663  24.7160155   7.3191039  38.2452132
  36.1539588  35.1655822  42.2805563  36.7917998  35.0462569  41.5768903
  36.0360431  36.1136666  42.3393515  32.9629294  35.1183250  42.2167087
  32.6247806  35.0024315  41.3287622  33.8319063  34.7174415  42.1968093
  28.8216110  36.9718726  38.2063978  28.2580975  36.8808663  37.4380266
  28.7068505  36.1518631  38.6866471  33.4449077  36.2718102  48.1753293
  33.4337718  35.8770900  47.3033796  33.6069717  35.5384174  48.7687064
  26.3680542  38.4669918  41.0448199  27.1601834  38.1260743  40.6294498
  26.6077192  38.5764893  41.9650352  34.4015669  40.6389694  33.5178443
  33.7503648  41.2243775  33.1312457  35.1960032  41.1695889  33.5773481
  28.3271296  37.7278831  33.9165577  29.1002172  37.1807818  33.7778453
  28.6796695  38.5923081  34.1280039  30.1656338  39.0555214  47.1232477
  29.8746204  39.9600844  47.0079143  30.8013323  39.0971741  47.8376546
  31.0912545  36.4332062  43.7133836  31.6876118  36.2088085  42.9990799
  31.1487517  35.6916808  44.3159284  35.7080857  32.8907276  39.3558771
  36.4943946  32.4726699  39.0049188  35.9719561  33.7953368  39.5240419
  35.8790934  38.3280126  34.0547427  35.2436767  38.4014753  34.7668332
  35.5488340  38.9173725  33.3766507  41.1089284  32.8282509  40.2591749
  41.8414456  32.2581726  40.4929579  40.3528639  32.4404109  40.6998255
  32.7265403  35.2509751  37.4555092  32.3623611  34.7240371  38.1668013
  33.5832519  34.8608220  37.2821577  38.6314704  26.5404083  44.7186358
  38.2998029  27.4099494  44.4947573  38.0360317  26.2240367  45.3980388
  35.1246224  38.7416629  44.1182270  34.8246947  39.6441668  44.0098078
  34.7797283  38.4748812  44.9703423  28.5758705  35.1930426  40.1518975
  27.6509201  35.0606640  40.3596667  28.8243118  35.9724645  40.6488917
  38.5243367  31.2599169  41.7979708  37.6160245  31.1914578  41.5038469
  38.4730963  31.7371114  42.6261533  25.9367516  34.8363699  40.9862764
  26.0659897  35.0898178  41.9002176  25.2564967  35.4291407  40.6667419
  30.1067003  45.5060949  37.0853238  30.0291033  46.4568775  37.1641719
  29.5028647  45.1606822  37.7428164  32.5984233  32.6788815  49.7414605
  31.8217567  33.2382735  49.7317470  33.2374796  33.1645598  50.2629475
  40.3905014  29.4615608  43.5757582  39.7479394  29.7548141  42.9297376
  39.8859942  29.3468528  44.3810778  38.0445177  33.2078781  34.2643441
  38.9563033  33.4406168  34.0891138  37.5354824  33.7915825  33.7018520
  30.8530605  35.4874268  49.3032572  31.5945290  36.0259312  49.0267396
  30.1467591  36.1140557  49.4604124  36.3285945  37.6303409  47.9004734
  36.7369301  37.1885819  47.1559366  35.6063207  37.0556036  48.1538926
  32.6817015  32.5676015  45.2738290  33.5278210  32.9915429  45.4172939
  32.6215653  31.9109640  45.9676854  36.6514760  38.1904599  41.6557022
  36.0223622  38.3550313  40.9533090  36.2640422  38.6046209  42.4267986
  40.5303992  39.1259037  39.0101386  39.8455030  39.5057939  38.4598419
  40.6147841  39.7354364  39.7433334  35.8316460  30.2280384  46.9319464
  35.5877392  30.9822444  46.3953740  36.1076391  30.6065731  47.7666711
  37.7854923  36.7718996  45.6096730  37.9971818  37.4150756  44.9331111
  37.7384671  35.9381313  45.1418660  35.3881152  29.3836817  42.5133302
  34.5265631  29.6818070  42.8050039  35.4143587  29.6007216  41.5814334
  32.2042722  37.9279007  38.9207107  32.6681067  38.2066710  38.1311730
  31.9399520  37.0262452  38.7380198  29.0966803  37.4750489  41.8586871
  29.6668160  37.9037757  41.2204355  29.6874914  37.1933074  42.5571056
  29.5891969  32.6413916  50.1047882  28.9590630  33.3230197  50.3383279
  29.4828057  32.5296998  49.1601020  24.8836942  32.3085712  41.0313806
  24.0935996  32.5643241  40.5553917  25.3748189  33.1234050  41.1365847
  38.9000751  39.6490952  43.7819087  39.7218195  39.2471139  43.5001769
  38.8963154  39.5459186  44.7335203  26.8351687  32.6730292  37.9897283
  26.0382850  32.7848986  38.5080779  26.6077279  33.0116944  37.1238173
  32.6657355  39.1974995  45.9379798  32.7301787  39.6595402  46.7737969
  31.9568278  38.5672360  46.0662107  23.1674645  32.5616203  43.4628797
  23.4182683  33.4463213  43.7286373  23.7034193  32.3820804  42.6903889
  46.9906744  35.9929700  40.1304058  46.2370453  35.4237098  39.9748063
  47.1254285  35.9592365  41.0774693  32.3805372  40.8643102  35.8058778
  32.2451047  41.7094638  36.2343626  32.9215185  41.0662380  35.0424712
  28.8672712  26.9434682  52.4673133  28.4739657  26.3900881  53.1420777
  29.6838852  27.2545261  52.8579651  25.8334770  38.3818540  36.3786703
  26.3459290  39.1761791  36.5292268  26.4857482  37.6844831  36.3120304
  27.6429654  41.4984297  38.4609456  27.8196283  42.4202261  38.2730440
  28.4386488  41.1842716  38.8903836  31.7840673  28.3592561  50.0593390
  32.5250386  28.9599714  49.9797852  32.0158596  27.6170199  49.5011432
  26.9282011  33.5448929  48.3371619  26.8135526  32.6434186  48.6378718
  26.0726529  33.7912625  47.9856436  34.0073849  41.4866669  49.9359120
  33.5637703  40.7003047  49.6180024  34.6691062  41.6745819  49.2703011
  28.7660970  43.0162471  44.4619798  29.3168395  42.8879534  43.6896792
  27.9272446  43.3157360  44.1114691  36.1055087  41.7669469  47.9640521
  36.0873562  42.5878350  47.4720790  37.0275007  41.6423544  48.1890662
  32.5628141  39.2813598  48.8064030  33.0956478  38.5201887  48.5763338
  32.0342222  38.9887250  49.5488184  35.7297836  24.3873664  44.3357671
  35.3862105  25.2775306  44.2596782  36.0976798  24.1975322  43.4727256
  23.7983686  36.7107195  37.1546273  24.6358908  37.1204203  36.9379981
  23.9761954  35.7706637  37.1246467  34.8094376  26.7578319  42.3006905
  34.3059172  26.7208455  41.4874710  35.1024983  27.6671062  42.3603561
  31.0537262  26.8417049  41.3073086  31.9190259  26.6459858  40.9478976
  31.1214771  26.6127401  42.2342443  40.6682393  37.1314630  34.7783280
  39.8911835  36.7925790  34.3338442  41.3473874  37.1367253  34.1038245
  33.9280854  38.4099591  36.3182842  33.4002215  37.6752350  36.0056079
  33.4268356  39.1874267  36.0722810  38.9073700  36.6048611  41.4349888
  38.2497374  37.2947873  41.5230017  39.7114099  36.9945043  41.7783874
  37.7179158  34.9592984  39.4853830  38.2311040  35.5922976  39.9875539
  38.3680382  34.3594180  39.1197190  34.9801533  44.9377308  32.2414501
  34.3063231  45.2409005  32.8499459  35.3667355  45.7406389  31.8919958
  34.1959989  32.4342440  41.7312170  33.2782551  32.6557387  41.5733858
  34.6120133  32.5088750  40.8723877  34.9795037  33.8333855  36.8614850
  35.7266856  34.3455252  36.5521972  35.2486627  33.5117908  37.7219244
  33.2521687  36.3292396  33.8441805  32.3432906  36.0451429  33.9414274
  33.2816771  36.7491475  32.9845112  38.4840955  39.9398985  37.6132972
  38.0303282  39.0989895  37.6698163  37.8534921  40.5760384  37.9507752
  37.4273874  30.8690971  38.8433640  36.6896631  30.3568358  39.1743882
  37.6800648  30.4291353  38.0316917  36.9273894  41.7775482  38.5482790
  37.2196868  42.3380539  37.8295156  37.4372514  42.0704043  39.3035950
  37.5285501  23.6467223  39.4375409  37.8344378  22.7864587  39.1501324
  38.2538106  24.2384844  39.2374403  23.8209858  34.0497910  37.8257007
  23.6234257  33.4567271  37.1008073  23.2656522  33.7450120  38.5432946
  31.8006581  33.9421017  39.9451600  31.8555191  32.9894853  39.8694077
  30.9897783  34.0980456  40.4292898  32.9497775  37.8701140  31.1829883
  32.5117205  37.1536999  30.7235521  33.6908216  38.0977254  30.6214975
  31.8907519  42.5555833  39.6376244  31.8483698  42.7816680  38.7084776
  32.8070218  42.3219208  39.7862045  35.3373153  33.0239901  46.5356873
  35.6922541  33.2511374  47.3951339  35.9845284  33.3558278  45.9134128
  41.0670890  36.1458337  37.2406202  40.9288788  36.3359933  36.3127391
  40.7107109  36.9077719  37.6974253  29.2313016  30.1316432  43.3203214
  29.8712395  29.9905191  42.6226177  28.3990546  29.8450945  42.9441816
  41.0940269  38.2134864  42.2517473  41.5276776  38.1210153  43.1000527
  41.8071850  38.1892364  41.6137489  30.0073320  39.4318862  39.4338206
  30.8013918  38.9369182  39.2320781  29.2965012  38.9036725  39.0705912
  34.8268164  41.8136958  43.7850574  34.8805187  42.3827894  44.5528290
  33.9582946  41.9838843  43.4204611  27.7066558  31.5154514  45.2675025
  28.3789611  31.3071876  44.6187674  26.8796344  31.3176600  44.8280258
  41.9555819  38.2558564  44.7850359  42.1491709  39.1604375  45.0309634
  41.8556437  37.7965983  45.6188944  33.6092130  28.1416455  47.2840686
  32.9620045  28.8406405  47.1905162  34.3793145  28.5752599  47.6516934
  37.0170928  38.4065307  50.3591239  36.8656434  38.1775859  49.4421323
  37.0075607  39.3635908  50.3722584  33.7856264  35.9797220  45.3437506
  34.7148324  36.1308379  45.1706473  33.3647294  36.0681241  44.4886152
  32.5844596  40.0047884  43.1136043  32.4455681  39.6366669  43.9861982
  31.7959192  40.5195524  42.9420001  33.1792748  45.1056981  34.4561580
  33.3544503  44.6345024  35.2707203  32.4925536  45.7322747  34.6842841
  34.1349811  39.3829487  40.5024881  33.7999644  39.3430257  41.3982531
  33.6353757  38.7174203  40.0295291  28.1094055  34.7897117  46.0277462
  27.9713853  34.0577356  46.6289001  29.0198978  34.7006017  45.7461650
  37.0709003  36.7285521  30.7761941  36.4538173  36.0032349  30.6794994
  36.6025491  37.4894882  30.4329015  30.7376356  34.5017076  45.5161142
  31.4475974  33.8610268  45.4747760  30.6945664  34.7529971  46.4387323
  29.4505290  31.4882294  47.3356781  28.9142647  31.0373033  47.9878378
  28.8621998  31.6228203  46.5927246  27.7453833  48.2546343  41.2301440
  27.9850431  48.8864868  41.9080459  26.9023030  47.9034383  41.5166799
  38.7280542  39.4024014  46.6681701  37.8407320  39.0649935  46.7908100
  39.2979093  38.6707045  46.9050466  20.3809689  35.7348105  39.9924752
  21.0680728  35.4209835  39.4045768  20.2257817  36.6389470  39.7192004
  25.1844411  30.6238302  44.4209776  25.1002600  30.0163971  43.6860186
  24.3627117  31.1147320  44.4219272  32.2581695  44.0625466  43.6342944
  32.1851866  44.8680437  44.1462249  31.8159088  44.2617432  42.8090965
  32.0471475  43.2997236  37.1445766  31.2638996  43.8418916  37.2383990
  32.7464220  43.8171216  37.5440007  35.3568125  29.1091865  39.7879971
  35.8536824  28.3561828  39.4681041  34.5855106  29.1456182  39.2223180
  43.2097882  34.8132231  41.4298263  43.1987758  35.6956946  41.0592196
  42.3415261  34.4603782  41.2352800  34.7180378  43.9612300  45.7901103
  35.4308351  44.5959765  45.7177004  34.2270407  44.0576166  44.9741105
  36.4397905  37.8663553  37.3618394  35.5054184  37.9865015  37.1923099
  36.6174574  36.9636019  37.0978404  31.9403093  31.2509248  39.5151656
  31.5700881  30.6980289  40.2032561  32.4362186  30.6467382  38.9626656
  39.8270457  33.7080872  37.8968429  40.2930909  34.5408863  37.8228731
  40.2777957  33.2425853  38.6013687  29.7692292  41.7106743  46.6106674
  30.4701751  42.3443226  46.7636068  29.2987407  42.0521475  45.8502313
  37.8946688  40.0524693  34.8954581  38.1706532  39.9381288  35.8048455
  37.0251187  39.6542178  34.8566754  37.7987119  26.0761459  41.9359330
  36.8850199  26.3065686  42.1041537  38.2280221  26.1599903  42.7873362
  37.5693578  34.2651351  44.4359224  36.9165028  34.5127258  43.7811677
  37.9473958  33.4515489  44.1021701  34.5300752  44.3011044  38.5387394
  34.7123146  43.4832700  39.0015147  35.3533738  44.5178736  38.1012284
  34.8642917  43.2279229  35.8002443  35.3930684  42.7171684  35.1872605
  35.1271137  42.9121759  36.6647976  33.6181151  35.0071162  50.9225261
  32.9421788  34.9065291  51.5927636  34.4408785  34.8510376  51.3861258
  25.3660010  41.2443098  43.5437776  25.9513447  40.4986786  43.6765680
  25.1684848  41.5547055  44.4274440  28.2198665  44.2794346  38.5600219
  27.5509041  44.7640473  38.0764259  28.0811535  44.5263566  39.4743597
  19.9577665  33.8148699  42.2642219  19.9961764  33.2812289  43.0579338
  19.4517958  33.2883904  41.6453197  32.3603934  46.3138089  45.1582877
  32.9122242  46.4769711  45.9231962  32.7010127  46.9042527  44.4862902
  27.3368427  28.6613239  45.7604762  27.4009754  29.5228070  45.3482159
  27.2735547  28.0487241  45.0277120  26.8120700  30.7336372  49.4077796
  27.4392738  30.3513449  50.0215320  25.9548618  30.5150574  49.7733488
  35.4972321  44.2620065  42.1446559  35.3723461  43.4609805  41.6357505
  36.1551412  44.7566258  41.6560529  27.1180489  30.6168797  41.3223699
  26.3967075  31.2304765  41.1831173  27.9073745  31.1526562  41.2440345
  37.5607229  42.0629085  43.7726109  36.6137565  41.9434436  43.7004436
  37.9090003  41.1751583  43.8552371  29.9206803  27.9523224  47.5964351
  30.4441205  28.1985520  48.3590660  29.7019136  28.7843259  47.1767488
  34.5653663  41.8581801  39.9730461  34.4178625  40.9298509  40.1538032
  35.3907156  41.8801892  39.4887537  38.1687785  42.6810360  41.0595334
  39.0934332  42.4753221  40.9219785  38.0003088  42.4326761  41.9684676
  31.1259348  28.8936919  45.2814022  30.7856168  28.0944732  45.6834702
  30.4198354  29.1938630  44.7090855  31.7775820  25.9786231  43.7341345
  32.6001889  25.5046710  43.6120235  32.0213883  26.7576715  44.2340031
  29.3014398  32.6705352  41.5433323  29.1558979  32.9845655  42.4357605
  28.8239602  33.2890252  40.9904222  31.1610781  29.6607900  41.5914213
  31.1472350  28.7648993  41.2546511  31.8783209  29.6678564  42.2252499
  33.0136912  30.0945240  43.6367340  32.7554690  31.0162311  43.6351671
  32.4821952  29.6975675  44.3267804  37.9583101  43.1996027  36.4157426
  38.1319978  42.6342450  35.6631278  38.4511992  43.9996922  36.2336916
  23.7760061  35.2110696  44.4820985  23.2313529  35.9870504  44.6141259
  24.6539411  35.5581501  44.3240106  33.4338868  26.2277191  39.9968503
  33.4560565  26.2916524  39.0420482  33.8506927  25.3881699  40.1909009
  43.8122492  35.9632450  38.0347725  44.2553638  35.2139776  37.6366849
  42.9349002  35.9542587  37.6521457  38.9458273  42.5162792  33.5154324
  39.6409178  43.1369484  33.7341639  39.2881423  41.6658143  33.7906702
  24.5626083  34.3380593  47.3751141  23.8207819  34.4863228  47.9615772
  24.2418827  34.5988858  46.5117891  40.8449696  39.9662497  35.0441655
  41.3701021  40.3049770  34.3190975  40.7572049  39.0309513  34.8604789
  32.5069745  43.8796571  47.1731531  32.8156872  43.6345718  48.0454231
  33.3045227  44.0843209  46.6850402  32.5290357  46.0334481  39.4036908
  32.0895347  45.5410859  40.0969765  33.2798474  45.4907448  39.1628983
  25.0082696  42.2246021  39.4061536  25.8340716  41.9249793  39.0260180
  24.6576748  41.4553644  39.8551325  29.9764229  41.5772490  41.4759210
  29.3544239  40.9143195  41.1761437  30.6469096  41.6033622  40.7932857
  23.2091301  40.1432348  40.3650470  22.3723210  39.7154522  40.1834471
  23.1814947  40.3364791  41.3021261  30.0488757  30.0554278  51.0691716
  30.0976912  30.9316400  50.6869485  30.5911271  29.5131671  50.4963359
  40.6541478  37.4487867  47.6625581  40.7039482  37.2837875  48.6041104
  40.5455401  36.5815126  47.2723462  29.5377736  40.1276413  34.9517670
  29.6865857  40.8111877  34.2984343  30.3444180  40.1081503  35.4667126
  37.9445240  33.4318795  48.9784888  38.8455103  33.2925260  48.6868886
  38.0193214  33.5973250  49.9183065  32.2788045  30.8085650  47.8238074
  31.4091355  31.1019216  47.5520663  32.5147526  31.3926095  48.5445338
  43.3555357  37.4337689  40.4270173  44.1902248  37.8727493  40.5907733
  43.4914486  36.9576342  39.6078419  40.4046863  34.9917423  46.3747661
  40.8800984  35.1845070  45.5666512  39.4812428  35.0476609  46.1291044
  27.2930369  36.1541591  35.9578739  27.0476411  35.2503921  36.1558949
  27.4626284  36.1558741  35.0158217  34.9827079  27.0265267  45.3403495
  35.5009023  27.7626294  45.0149983  34.6282212  27.3329260  46.1750254
  35.2339673  23.4465550  40.8604391  35.5141427  22.7788739  41.4864818
  36.0190280  23.6394645  40.3479055  33.0373142  42.6224543  32.4229418
  32.4647109  43.2414731  31.9699889  33.6105935  43.1723905  32.9569340
  39.1048532  31.8683184  44.6075966  40.0565955  31.9681281  44.6288190
  38.9351982  31.0761452  45.1174051  37.1262911  28.9538767  44.7935367
  36.5312843  29.2343779  44.0981856  36.8412608  29.4432668  45.5652108
  36.2570402  42.9061694  33.5538000  37.1901075  42.8407255  33.7570875
  36.1693614  43.7417960  33.0952533  38.8858418  42.2227564  30.5141947
  38.8072050  41.8887428  31.4077705  39.7068085  42.7149332  30.5133420
  41.5836609  35.0889303  43.7218266  41.5512930  34.1505304  43.9077950
  42.1937233  35.1673340  42.9884091  41.7331098  31.8800347  43.7676549
  41.2170147  31.0958803  43.5806478  42.6171046  31.5519063  43.9323069
  39.3941825  25.6241362  39.7272362  39.1966646  25.3156450  40.6115694
  40.0041530  26.3503001  39.8570292  47.4013159  36.1505310  42.8624303
  48.1316548  35.8890598  43.4232006  46.7920105  35.4134032  42.9026371
  45.4828456  34.2913173  43.4598754  44.7561620  34.1569138  42.8515246
  45.0675743  34.5990001  44.2655472  33.3058633  38.0103102  51.2246127
  34.2261642  38.1881701  51.4186174  33.2708216  37.0659148  51.0725826
  22.5240798  33.2041696  40.1499402  22.2043582  32.3507004  39.8573776
  21.9774226  33.4190274  40.9057369  26.3020705  35.9204137  43.8668908
  26.5206715  36.8521245  43.8856942  26.7146479  35.5612111  44.6523712
  31.1748571  31.4937343  53.2571657  31.0745298  32.4431700  53.1883748
  30.9570113  31.1655582  52.3847727  22.3929058  36.8244607  42.1192523
  21.6992529  36.4098560  41.6062478  23.1402049  36.8665144  41.5225942
  38.5294279  27.6150794  36.9847557  37.9492948  28.2735598  36.6025610
  38.2630211  26.7928139  36.5734975  36.9797845  27.0155852  39.1868878
  37.4797623  27.1272387  38.3783197  37.6233453  26.7116905  39.8269686
  31.0379841  34.9234482  52.0736719  30.5546922  35.7234842  52.2800608
  31.1240780  34.9342426  51.1204163  24.3065800  36.7562861  39.9958538
  24.2836488  36.8550549  39.0440421  24.6166437  37.6028012  40.3175704
  26.9653178  38.8139016  44.1105153  27.9196432  38.7822959  44.0435084
  26.7665702  38.3529640  44.9255378  27.5552560  37.3840132  46.6775950
  28.3745449  37.8784211  46.7010788  27.8289368  36.4672100  46.6493518
  40.6633693  29.7997406  39.7558245  41.4394083  30.2893858  40.0282862
  39.9381827  30.2255460  40.2130114  43.1006251  30.5125025  40.8132186
  43.6950742  30.2720761  40.1025494  43.1732835  29.7932155  41.4405722
  25.3203407  44.3558636  41.1275350  25.1857875  43.5959037  40.5613348
  24.9035469  45.0799536  40.6604139  36.4562370  39.5395559  30.1351926
  37.1598220  39.7445562  30.7509581  35.7325019  40.1072321  30.4001009
  37.2860180  35.2905421  36.2554196  37.2295382  35.7473972  35.4161828
  37.8388523  34.5296105  36.0777039  41.0964986  31.0795152  37.0804315
  40.8401920  30.6791788  37.9112523  40.4717854  31.7938946  36.9554455
  45.4077324  33.8191226  39.5875607  44.8476882  33.8884415  40.3607169
  44.8020827  33.6432210  38.8675103  28.4772533  45.2527953  41.3393793
  28.3604917  46.1973385  41.2372483  27.6564979  44.9501514  41.7279592
  38.3649067  39.9778089  32.1850386  39.1994671  39.5459287  32.0027861
  38.2033410  39.8060102  33.1127280  38.0194960  36.4810202  33.5506725
  37.9643763  36.3154473  32.6095169  37.3941015  37.1886235  33.7068915
  22.8087475  31.7178266  47.3768147  23.4546338  31.2077220  47.8655372
  22.6004626  32.4546948  47.9511573  29.5027047  45.9056215  44.5549722
  30.4054294  45.9379825  44.8716216  29.2764417  44.9756666  44.5696057
  31.2580649  44.6587201  41.2159800  30.3076280  44.6589063  41.1024172
  31.5613135  43.9119936  40.6995835  35.1443205  22.5761087  37.3837980
  34.3775600  22.0219574  37.5294663  35.5553909  22.6482956  38.2452132
  27.1484966  28.8645883  51.4743162  28.0116427  28.5082688  51.6846486
  26.5750376  28.5259778  52.1618566  39.6609864  52.3010644  38.2063978
  39.0974730  52.2100581  37.4380266  39.5462260  51.4810549  38.6866471
  39.1665050  53.0570749  33.9165577  39.9395926  52.5099736  33.7778453
  39.5190449  53.9214998  34.1280039  41.5031328  49.2163415  31.5484027
  41.7556849  48.6944936  30.7867490  40.5655887  49.0529561  31.6510711
  46.5474611  48.2199193  39.3558771  47.3337700  47.8018617  39.0049188
  46.8113315  49.1245286  39.5240419  41.2227617  51.1191521  33.7508402
  41.1063875  50.4436424  34.4189487  41.3329877  50.6323895  32.9340555
  43.5659158  50.5801668  37.4555092  43.2017365  50.0532289  38.1668013
  44.4226274  50.1900137  37.2821577  43.2064645  45.6091568  32.4516440
  43.3739047  46.4771804  32.8186911  43.0161814  45.7718850  31.5277729
  39.4152459  50.5222344  40.1518975  38.4902956  50.3898558  40.3596667
  39.6636873  51.3016563  40.6488917  43.1853866  48.0649225  33.4363107
  43.0653491  48.5106276  34.2748587  42.4906454  48.4134543  32.8776645
  36.7761271  50.1655617  40.9862764  36.9053652  50.4190096  41.9002176
  36.0958722  50.7583325  40.6667419  48.8838932  48.5370699  34.2643441
  49.7956788  48.7698085  34.0891138  48.3748579  49.1207743  33.7018520
  46.2274907  44.7128735  42.5133302  45.3659386  45.0109988  42.8050039
  46.2537341  44.9299133  41.5814334  43.0436476  53.2570925  38.9207107
  43.5074822  53.5358628  38.1311730  42.7793274  52.3554370  38.7380198
  41.9805362  49.3794077  35.7296673  42.6829405  49.8315121  36.1970599
  41.6485991  48.7377896  36.3576566  35.7230696  47.6377630  41.0313806
  34.9329750  47.8935159  40.5553917  36.2141943  48.4525968  41.1365847
  37.6745441  48.0022209  37.9897283  36.8776605  48.1140904  38.5080779
  37.4471034  48.3408862  37.1238173  34.0068399  47.8908121  43.4628797
  34.2576437  48.7755130  43.7286373  34.5427947  47.7112722  42.6903889
  36.6728524  53.7110458  36.3786703  37.1853045  54.5053708  36.5292268
  37.3251237  53.0136749  36.3120304  38.4823409  56.8276214  38.4609456
  38.6590037  57.7494179  38.2730440  39.2780242  56.5134634  38.8903836
  46.5691590  39.7165582  44.3357671  46.2255860  40.6067224  44.2596782
  46.9370553  39.5267240  43.4727256  34.6377441  52.0399112  37.1546273
  35.4752663  52.4496121  36.9379981  34.8155709  51.0998555  37.1246467
  46.5341873  49.7074193  32.8430106  46.0188496  50.4778798  33.0818494
  46.2619181  49.0339329  33.4663168  44.1188984  44.5523894  37.9015345
  43.2630580  44.1630744  37.7220984  44.5315936  44.6315855  37.0415130
  45.6488131  42.0870237  42.3006905  45.1452926  42.0500372  41.4874710
  45.9418738  42.9962980  42.3603561  41.8931017  42.1708967  41.3073086
  42.7584013  41.9751776  40.9478976  41.9608525  41.9419319  42.2342443
  46.3228176  47.5801285  34.6689888  46.0178312  47.8947434  35.5200031
  47.2758618  47.6582705  34.7117221  39.4993336  44.4011175  38.6789453
  40.0737088  44.1786356  37.9462646  40.0864318  44.4699869  39.4318054
  39.8262923  46.4315636  32.6985338  38.9900235  46.7690322  33.0194613
  39.6867692  46.2964616  31.7612475  41.8016003  41.2752424  37.4064523
  41.1480416  40.9601441  36.7821137  41.7596478  40.6528164  38.1324345
  42.9127208  51.5571719  29.3217815  42.0054270  51.3260972  29.5208964
  43.4098240  50.7609338  29.5091796  45.0353744  47.7634357  41.7312170
  44.1176305  47.9849304  41.5733858  45.4513887  47.8380668  40.8723877
  45.8188791  49.1625773  36.8614850  46.5660610  49.6747170  36.5521972
  46.0880381  48.8409826  37.7219244  44.0915442  51.6584314  33.8441805
  43.1826661  51.3743346  33.9414274  44.1210525  52.0783392  32.9845112
  48.2667629  46.1982889  38.8433640  47.5290385  45.6860275  39.1743882
  48.5194402  45.7583271  38.0316917  48.3679256  38.9759141  39.4375409
  48.6738133  38.1156505  39.1501324  49.0931861  39.5676761  39.2374403
  34.6603612  49.3789828  37.8257007  34.4628012  48.7859188  37.1008073
  34.1050276  49.0742038  38.5432946  42.6400336  49.2712934  39.9451600
  42.6948945  48.3186771  39.8694077  41.8291538  49.4272373  40.4292898
  43.7891529  53.1993057  31.1829883  43.3510959  52.4828916  30.7235521
  44.5301970  53.4269172  30.6214975  40.5792696  47.8889994  37.7041979
  39.7660561  48.1884165  38.1107171  41.0751690  47.4945683  38.4216461
  40.0706770  45.4608349  43.3203214  40.7106150  45.3197109  42.6226177
  39.2384301  45.1742863  42.9441816  40.8467074  54.7610780  39.4338206
  41.6407673  54.2661100  39.2320781  40.1358767  54.2328643  39.0705912
  37.1549838  48.9053862  35.5097959  36.2247426  48.8438317  35.7267921
  37.2507310  48.3829814  34.7134600  37.0735387  45.4308674  38.0976201
  37.3342204  46.3454008  37.9885361  37.8952559  44.9633117  38.2472813
  38.5460312  46.8446432  45.2675025  39.2183366  46.6363794  44.6187674
  37.7190099  46.6468518  44.8280258  39.7001303  46.2762863  29.8983245
  38.8230769  46.1551664  29.5345492  40.1759056  45.4848942  29.6462134
  31.2203443  51.0640023  39.9924752  31.9074483  50.7501753  39.4045768
  31.0651572  51.9681388  39.7192004  36.0238165  45.9530220  44.4209776
  35.9396354  45.3455889  43.6860186  35.2020872  46.4439238  44.4219272
  46.1961879  44.4383783  39.7879971  46.6930579  43.6853745  39.4681041
  45.4248861  44.4748100  39.2223180  42.7796848  46.5801166  39.5151656
  42.4094635  46.0272206  40.2032561  43.2755940  45.9759300  38.9626656
  48.6380874  41.4053377  41.9359330  47.7243954  41.6357603  42.1041537
  49.0673975  41.4891821  42.7873362  30.7971419  49.1440616  42.2642219
  30.8355519  48.6104207  43.0579338  30.2911712  48.6175822  41.6453197
  38.1762182  43.9905157  45.7604762  38.2403508  44.8519988  45.3482159
  38.1129302  43.3779158  45.0277120  34.4279997  47.8704718  35.3396151
  34.7233438  46.9615397  35.2863205  33.5268033  47.8492458  35.0177153
  37.9574244  45.9460715  41.3223699  37.2360830  46.5596683  41.1831173
  38.7467500  46.4818480  41.2440345  36.1567838  45.5518816  35.4635476
  35.8280545  44.6716195  35.2810582  36.5107209  45.4966485  36.3511865
  39.2709662  45.8391786  35.8310954  39.6105734  46.3677707  35.1089562
  39.7181782  46.1772192  36.6069520  41.9653102  44.2228837  45.2814022
  41.6249923  43.4236650  45.6834702  41.2592109  44.5230548  44.7090855
  42.6169574  41.3078149  43.7341345  43.4395644  40.8338627  43.6120235
  42.8607638  42.0868633  44.2340031  41.2577809  44.3366408  34.0304246
  41.9786171  44.7147660  33.5267963  40.6343113  45.0555284  34.1339224
  45.4008932  45.0411557  34.9662579  45.6172546  45.9236194  34.6651407
  44.9202999  44.6497770  34.2368221  40.1408153  47.9997270  41.5433323
  39.9952734  48.3137573  42.4357605  39.6633357  48.6182170  40.9904222
  42.0004536  44.9899818  41.5914213  41.9866105  44.0940911  41.2546511
  42.7176964  44.9970481  42.2252499  43.8530667  45.4237158  43.6367340
  43.5948444  46.3454229  43.6351671  43.3215707  45.0267592  44.3267804
  34.6153815  50.5402614  44.4820985  34.0707283  51.3162422  44.6141259
  35.4933165  50.8873419  44.3240106  41.4041432  43.8714198  36.8601783
  41.5257343  42.9430844  37.0592671  41.1143474  43.8852884  35.9480098
  44.2732622  41.5569108  39.9968503  44.2954319  41.6208442  39.0420482
  44.6900681  40.7173617  40.1909009  35.8476451  57.5537939  39.4061536
  36.6734471  57.2541711  39.0260180  35.4970503  56.7845562  39.8551325
  34.0485056  55.4724266  40.3650470  33.2116964  55.0446440  40.1834471
  34.0208701  55.6656709  41.3021261  40.3771491  55.4568331  34.9517670
  40.5259611  56.1403795  34.2984343  41.1837934  55.4373421  35.4667126
  38.1324124  51.4833508  35.9578739  37.8870166  50.5795838  36.1558949
  38.3020038  51.4850659  35.0158217  37.4019771  47.2161866  33.4564901
  36.7089016  47.2906221  32.8004936  37.1571523  46.4522210  33.9786417
  46.0733428  38.7757467  40.8604391  46.3535182  38.1080656  41.4864818
  46.8584035  38.9686563  40.3479055  44.2613695  49.2877274  29.7645470
  45.2072800  49.1583482  29.8333888  43.8827940  48.5491936  30.2414898
  50.2335579  40.9533280  39.7272362  50.0360400  40.6448368  40.6115694
  50.8435285  41.6794919  39.8570292  42.4456612  47.2127250  29.7000355
  41.5388067  46.9160363  29.7763069  42.7232593  46.9157068  28.8334642
  33.3634552  48.5333614  40.1499402  33.0437337  47.6798922  39.8573776
  32.8167980  48.7482192  40.9057369  44.0618678  41.7564140  35.8544597
  43.2519406  41.4111225  36.2299843  44.7503095  41.4471684  36.4432208
  45.9909226  40.8342187  37.4768893  46.5440265  41.2537640  38.1358916
  46.2279312  39.9077935  37.5191849  41.2155397  44.0714185  29.8412334
  42.0774561  44.3969084  30.1008152  41.4005741  43.2845681  29.3285400
  33.2322812  52.1536525  42.1192523  32.5386284  51.7390478  41.6062478
  33.9795803  52.1957062  41.5225942  49.3688033  42.9442712  36.9847557
  48.7886702  43.6027516  36.6025610  49.1023966  42.1220057  36.5734975
  47.8191599  42.3447770  39.1868878  48.3191378  42.4564304  38.3783197
  48.4627207  42.0408822  39.8269686  35.1459555  52.0854779  39.9958538
  35.1230243  52.1842466  39.0440421  35.4560191  52.9319930  40.3175704
  48.1512911  45.1042802  36.0403906  47.2638766  45.3892453  35.8224101
  48.5666900  44.9436566  35.1931183  51.5027447  45.1289323  39.7558245
  52.2787837  45.6185776  40.0282862  50.7775581  45.5547378  40.2130114
  48.1253935  50.6197338  36.2554196  48.0689136  51.0765890  35.4161828
  48.6782277  49.8588023  36.0777039  51.9358741  46.4087070  37.0804315
  51.6795675  46.0083706  37.9112523  51.3111609  47.1230864  36.9554455
  42.1684840  41.3110229  33.1292043  42.1563509  42.2552068  33.2860314
  43.0608261  41.1280374  32.8351505  45.9836959  37.9053005  37.3837980
  45.2169355  37.3511492  37.5294663  46.3947664  37.9774874  38.2452132
  17.9822357  -1.3511069  24.9309285  17.4187222  -1.4421132  24.1625573
  17.8674752  -2.1711164  25.4111777  22.6055324  -2.0511693  34.8998599
  22.5943965  -2.4458895  34.0279103  22.7675964  -2.7845621  35.4932371
  15.5286789   0.1440123  27.7693505  16.3208081  -0.1969052  27.3539805
  15.7683439   0.2535098  28.6895659  23.5621916   2.3159899  20.2423750
  22.9109895   2.9013980  19.8557764  24.3566278   2.8466094  20.3018787
  17.4877543  -0.5950964  20.6410884  18.2608419  -1.1421977  20.5023760
  17.8402942   0.2693286  20.8525345  19.3262585   0.7325419  33.8477783
  19.0352451   1.6371049  33.7324450  19.9619570   0.7741946  34.5621853
  20.2518792  -1.8897733  30.4379143  20.8482364  -2.1141711  29.7236106
  20.3093764  -2.6312987  31.0404591  25.0397181   0.0050331  20.7792734
  24.4043014   0.0784958  21.4913639  24.7094587   0.5943930  20.1011813
  19.5440109  -2.5330192  20.4753709  19.4276367  -3.2085288  21.1434793
  19.6542369  -3.0197818  19.6585862  24.2852470   0.4186834  30.8427577
  23.9853193   1.3211873  30.7343384  23.9403530   0.1519017  31.6948730
  19.2673250   7.1831154  23.8098545  19.1897280   8.1338979  23.8887025
  18.6634894   6.8377027  24.4673471  20.0136852  -2.8355527  36.0277879
  20.7551537  -2.2970483  35.7512702  19.3073838  -2.2089238  36.1849430
  25.4892192  -0.6926386  34.6250040  25.8975548  -1.1343976  33.8804673
  24.7669453  -1.2673759  34.8784233  25.8121006  -0.1325196  28.3802329
  25.1829869   0.0320518  27.6778397  25.4246669   0.2816414  29.1513293
  29.6910238   0.8029242  25.7346693  29.0061277   1.1828143  25.1843726
  29.7754088   1.4124569  26.4678641  21.3648968  -0.3950788  25.6452414
  21.8287314  -0.1163085  24.8557037  21.1005766  -1.2967343  25.4625505
  18.2573049  -0.8479306  28.5832177  18.8274406  -0.4192038  27.9449662
  18.8481161  -1.1296721  29.2816363  28.0606998   1.3261157  30.5064394
  28.8824442   0.9241344  30.2247075  28.0569401   1.2229391  31.4580509
  21.8263601   0.8745200  32.6625104  21.8908034   1.3365607  33.4983276
  21.1174525   0.2442565  32.7907414  21.5411619   2.5413307  22.5304084
  21.4057294   3.3864843  22.9588932  22.0821432   2.7432585  21.7670018
  14.9941016   0.0588745  23.1032010  15.5065537   0.8531996  23.2537574
  15.6463729  -0.6384964  23.0365611  16.8035901   3.1754502  25.1854763
  16.9802529   4.0972466  24.9975747  17.5992735   2.8612921  25.6149143
  23.1680095   3.1636874  36.6604427  22.7243950   2.3773252  36.3425331
  23.8297309   3.3516024  35.9948317  17.9267217   4.6932675  31.1865105
  18.4774642   4.5649739  30.4142099  17.0878692   4.9927564  30.8359998
  25.2661333   3.4439674  34.6885828  25.2479809   4.2648555  34.1966097
  26.1881254   3.3193749  34.9135969  21.7234388   0.9583803  35.5309336
  22.2562724   0.1972091  35.3008644  21.1948469   0.6657455  36.2733491
  23.0887100   0.0869796  23.0428148  22.5608462  -0.6477445  22.7301386
  22.5874603   0.8644472  22.7968117  21.2339700  -2.0949994  16.0463121
  20.3266762  -2.3260741  16.2454270  21.7310732  -2.8912375  16.2337103
  24.1407779   6.6147513  18.9659807  23.4669478   6.9179210  19.5744765
  24.5273601   7.4176594  18.6165264  22.4127934  -1.9937399  20.5687111
  21.5039153  -2.2778366  20.6659581  22.4423018  -1.5738321  19.7090418
  27.6447201   1.6169190  24.3378279  27.1909528   0.7760100  24.3943469
  27.0141168   2.2530589  24.6753059  26.0880141   3.4545687  25.2728097
  26.3803115   4.0150744  24.5540463  26.5978761   3.7474248  26.0281256
  22.1104022  -0.4528655  17.9075190  21.6723452  -1.1692797  17.4480827
  22.8514463  -0.2252541  17.3460281  21.0513766   4.2326038  26.3621550
  21.0089945   4.4586884  25.4330082  21.9676465   3.9989413  26.5107351
  30.2546516  -0.1094931  28.9762780  30.6883023  -0.2019642  29.8245834
  30.9678097  -0.1337431  28.3382796  19.1679567   1.1089067  26.1583513
  19.9620165   0.6139387  25.9566088  18.4571259   0.5806930  25.7951219
  23.9874411   3.4907163  30.5095881  24.0411433   4.0598099  31.2773596
  23.1189192   3.6609048  30.1449918  26.1777174   0.0835512  37.0836546
  26.0262681  -0.1453936  36.1666630  26.1681854   1.0406113  37.0967891
  22.9462511  -2.3432575  32.0682812  23.8754571  -2.1921416  31.8951780
  22.5253541  -2.2548554  31.2131459  21.7450843   1.6818089  29.8381350
  21.6061928   1.3136874  30.7107288  20.9565439   2.1965729  29.6665308
  22.3398995   6.7827186  21.1806887  22.5150750   6.3115229  21.9952509
  21.6531783   7.4092952  21.4088147  23.2956058   1.0599692  27.2270188
  22.9605890   1.0200462  28.1227838  22.7960003   0.3944408  26.7540598
  27.8869381   3.1154635  35.1613028  27.8281927   2.4313855  34.4943611
  28.2888899   3.8573625  34.7093654  16.9060080   9.9316548  27.9546747
  17.1456678  10.5635073  28.6325765  16.0629276   9.5804588  28.2412106
  27.8886788   1.0794218  33.3927008  27.0013567   0.7420140  33.5153406
  28.4585339   0.3477250  33.6295773  21.4187942   5.7395671  30.3588251
  21.3458113   6.5450642  30.8707555  20.9765335   5.9387637  29.5336272
  21.2077721   4.9767441  23.8691072  20.4245243   5.5189121  23.9629297
  21.9070466   5.4941420  24.2685313  23.8786625   5.6382505  32.5146409
  24.5914597   6.2729970  32.4422311  23.3876654   5.7346371  31.6986411
  25.6004152  -0.4566242  24.0863701  24.6660431  -0.3364780  23.9168405
  25.7780821  -1.3593776  23.8223711  18.9298539   3.3876948  33.3351980
  19.6307998   4.0213431  33.4881374  18.4593654   3.7291680  32.5747619
  27.0552935   1.7294898  21.6199887  27.3312778   1.6151493  22.5293761
  26.1857433   1.3312383  21.5812060  23.6906999   5.9781249  25.2632701
  23.8729393   5.1602905  25.7260453  24.5139985   6.1948941  24.8257591
  24.0249164   4.9049434  22.5247749  24.5536930   4.3941889  21.9117911
  24.2877384   4.5891964  23.3893282  14.5266257   2.9213303  30.2683083
  15.1119694   2.1756991  30.4010987  14.3291095   3.2317260  31.1519747
  17.3804912   5.9564551  25.2845525  16.7115287   6.4410678  24.8009565
  17.2417782   6.2033771  26.1988904  21.5210181   7.9908294  31.8828184
  22.0728489   8.1539916  32.6477269  21.8616374   8.5812732  31.2108208
  26.3721055   2.8169552  37.7376838  26.9160959   3.4299510  37.2431793
  25.7907900   3.3749130  38.2543851  24.6578568   5.9390270  28.8691866
  24.5329707   5.1380010  28.3602811  25.3157659   6.4336463  28.3805836
  26.7213476   3.7399290  30.4971416  25.7743812   3.6204641  30.4249743
  27.0696249   2.8521788  30.5797677  23.7259910   3.5352006  26.6975768
  23.5784872   2.6068714  26.8783338  24.5513403   3.5572097  26.2132843
  27.3294031   4.3580565  27.7840641  28.2540579   4.1523426  27.6465092
  27.1609335   4.1096966  28.6929982  27.1189348   4.8766232  23.1402732
  27.2926225   4.3112655  22.3876585  27.6118239   5.6767127  22.9582222
  28.1064520   4.1932997  20.2399631  28.8015425   4.8139689  20.4586945
  28.4487670   3.3428348  20.5152008  30.0055943   1.6432702  21.7686961
  30.5307267   1.9819975  21.0436281  29.9178296   0.7079718  21.5850096
  21.6675992   5.5566776  33.8976838  21.9763118   5.3115923  34.7699538
  22.4651474   5.7613414  33.4095708  21.6896604   7.7104685  26.1282215
  21.2501594   7.2181064  26.8215071  22.4404721   7.1677653  25.8874290
  14.1688943   3.9016226  26.1306843  14.9946963   3.6019998  25.7505486
  13.8182995   3.1323849  26.5796631  19.1370476   3.2542695  28.2004516
  18.5150485   2.5913400  27.9006744  19.8075343   3.2803826  27.5178164
  12.3697548   1.8202553  27.0895776  11.5329456   1.3924727  26.9079777
  12.3421193   2.0134996  28.0266567  29.6949849   2.2765606  37.0738159
  28.9045393   2.2589745  36.5342659  29.4583204   2.8153900  37.8287196
  18.6983983   1.8046618  21.6762977  18.8472103   2.4882082  21.0229650
  19.5050426   1.7851708  22.1912433  31.3165921   1.5455014  34.6312909
  31.0250729   1.9084994  35.4676370  30.7038052   0.8322022  34.4526241
  22.1979389   4.2994748  19.1474724  21.6253356   4.9184936  18.6945196
  22.7712182   4.8494110  19.6814646  25.4176648   4.5831899  20.2783306
  26.3507321   4.5177460  20.4816182  25.3299861   5.4188165  19.8197839
  28.0464665   3.8997769  17.2387254  27.9678297   3.5657632  18.1323012
  28.8674332   4.3919537  17.2378726  22.4664880  -0.3126693  37.9491434
  23.3867889  -0.1348094  38.1431480  22.4314463  -1.2570647  37.7971133
  20.1986088  -3.3995313  38.7982025  19.7153169  -2.5994953  39.0045914
  20.2847027  -3.3887369  37.8449469  16.1259425   0.4909221  30.8350459
  17.0802679   0.4593164  30.7680391  15.9271949   0.0299845  31.6500685
  16.7158807  -0.9389663  33.4021257  17.5351696  -0.4445584  33.4256094
  16.9895615  -1.8557695  33.3738824  14.4809654   6.0328841  27.8520657
  14.3464122   5.2729242  27.2858655  14.0641716   6.7569741  27.3849446
  25.6168617   1.2165764  16.8597232  26.3204467   1.4215767  17.4754888
  24.8931266   1.7842526  17.1246316  17.6378780   6.9298158  28.0639100
  17.5211164   7.8743590  27.9617790  16.8171226   6.6271719  28.4524899
  27.5255314   1.6548293  18.9095692  28.3600918   1.2229492  18.7273167
  27.3639657   1.4830307  19.8372587  24.4947114   0.4629319  39.6005594
  25.3638273   0.6369971  39.2392229  24.0153865   1.2823735  39.4781324
  18.6633294   7.5826420  31.2795028  19.5660540   7.6150030  31.5961523
  18.4370664   6.6526871  31.2941364  20.4186896   6.3357406  27.9405107
  19.4682527   6.3359268  27.8269479  20.7219382   5.5890141  27.4241141
  36.1539589  12.1717945  29.0050869  36.7917999  12.0524692  28.3014209
  36.0360432  13.1198789  29.0638821  32.9629296  12.1245373  28.9412394
  32.6247807  12.0086437  28.0532929  33.8319064  11.7236538  28.9213400
  28.8216111  13.9780849  24.9309285  28.2580976  13.8870786  24.1625573
  28.7068506  13.1580754  25.4111777  33.4449079  13.2780224  34.8998599
  33.4337719  12.8833023  34.0279103  33.6069718  12.5446297  35.4932371
  26.3680543  15.4732041  27.7693505  27.1601835  15.1322865  27.3539805
  26.6077193  15.5827016  28.6895659  34.4015670  17.6451817  20.2423750
  33.7503650  18.2305897  19.8557764  35.1960033  18.1758012  20.3018787
  28.3271297  14.7340954  20.6410884  29.1002173  14.1869941  20.5023760
  28.6796696  15.5985203  20.8525345  31.0912547  13.4394185  30.4379143
  31.6876119  13.2150207  29.7236106  31.1487518  12.6978930  31.0404591
  30.6637575  10.8933620  18.2729334  30.9163096  10.3715141  17.5112797
  29.7262134  10.7299765  18.3756018  35.7080858   9.8969398  26.0804077
  36.4943947   9.4788822  25.7294494  35.9719562  10.8015491  26.2485726
  35.8790935  15.3342249  20.7792734  35.2436768  15.4076875  21.4913639
  35.5488342  15.9235848  20.1011813  41.1089285   9.8344632  26.9837056
  41.8414457   9.2643848  27.2174885  40.3528641   9.4466232  27.4243561
  30.3833864  12.7961726  20.4753709  30.2670122  12.1206629  21.1434793
  30.4936124  12.3094100  19.6585862  32.7265405  12.2571873  24.1800398
  32.3623612  11.7302494  24.8913320  33.5832521  11.8670342  24.0066884
  38.6314705   3.5466206  31.4431664  38.2998030   4.4161617  31.2192879
  38.0360319   3.2302490  32.1225695  32.3670892   7.2861773  19.1761747
  32.5345294   8.1542009  19.5432218  32.1768061   7.4489054  18.2523036
  35.1246225  15.7478752  30.8427577  34.8246948  16.6503791  30.7343384
  34.7797284  15.4810935  31.6948730  28.5758706  12.1992549  26.8764281
  27.6509203  12.0668763  27.0841973  28.8243119  12.9786768  27.3734224
  38.5243369   8.2661292  28.5225014  37.6160246   8.1976700  28.2283775
  38.4730964   8.7433237  29.3506840  32.3460112   9.7419430  20.1608414
  32.2259738  10.1876481  20.9993894  31.6512701  10.0904748  19.6021952
  25.9367517  11.8425822  27.7108071  26.0659898  12.0960301  28.6247482
  25.2564969  12.4353530  27.3912726  32.5984234   9.6850937  36.4659912
  31.8217568  10.2444858  36.4562776  33.2374797  10.1707720  36.9874782
  40.3905015   6.4677730  30.3002888  39.7479395   6.7610263  29.6542683
  39.8859944   6.3530651  31.1056085  38.0445179  10.2140903  20.9888748
  38.9563035  10.4468290  20.8136445  37.5354826  10.7977948  20.4263826
  30.8530607  12.4936391  36.0277879  31.5945291  13.0321435  35.7512702
  30.1467592  13.1202680  36.1849430  36.3285946  14.6365531  34.6250040
  36.7369302  14.1947942  33.8804673  35.6063208  14.0618159  34.8784233
  32.6817016   9.5738138  31.9983597  33.5278212   9.9977552  32.1418246
  32.6215654   8.9171762  32.6922160  36.6514761  15.1966722  28.3802329
  36.0223623  15.3612436  27.6778397  36.2640423  15.6108331  29.1513293
  40.5303993  16.1321160  25.7346693  39.8455031  16.5120061  25.1843726
  40.6147842  16.7416486  26.4678641  35.8316462   7.2342506  33.6564771
  35.5877394   7.9884567  33.1199046  36.1076392   7.6127854  34.4912018
  37.7854924  13.7781119  32.3342036  37.9971820  14.4212879  31.6576417
  37.7384673  12.9443435  31.8663966  35.3881153   6.3898939  29.2378608
  34.5265632   6.6880193  29.5295346  35.4143588   6.6069338  28.3059641
  32.2042723  14.9341130  25.6452414  32.6681068  15.2128833  24.8557037
  31.9399521  14.0324575  25.4625505  29.0966804  14.4812612  28.5832177
  29.6668161  14.9099880  27.9449662  29.6874916  14.1995196  29.2816363
  31.1411609  11.0564282  22.4541979  31.8435652  11.5085326  22.9215906
  30.8092237  10.4148101  23.0821872  29.5891970   9.6476039  36.8293189
  28.9590631  10.3292320  37.0628585  29.4828058   9.5359121  35.8846327
  24.8836943   9.3147835  27.7559113  24.0935997   9.5705364  27.2799223
  25.3748190  10.1296173  27.8611153  38.9000752  16.6553074  30.5064394
  39.7218196  16.2533262  30.2247075  38.8963155  16.5521308  31.4580509
  26.8351688   9.6792414  24.7142590  26.0382851   9.7911109  25.2326085
  26.6077280  10.0179067  23.8483480  32.6657356  16.2037118  32.6625104
  32.7301788  16.6657525  33.4983276  31.9568280  15.5734482  32.7907414
  23.1674646   9.5678325  30.1874104  23.4182684  10.4525335  30.4531680
  23.7034194   9.3882927  29.4149195  46.9906745  12.9991823  26.8549365
  46.2370454  12.4299221  26.6993370  47.1254287  12.9654487  27.8020000
  32.3805373  17.8705225  22.5304084  32.2451048  18.7156761  22.9588932
  32.9215186  18.0724503  21.7670018  28.8672713   3.9496805  39.1918440
  28.4739659   3.3963003  39.8666084  29.6838853   4.2607383  39.5824957
  25.8334771  15.3880663  23.1032010  26.3459291  16.1823913  23.2537574
  26.4857484  14.6906953  23.0365611  31.7840674   5.3654684  36.7838696
  32.5250387   5.9661837  36.7043159  32.0158597   4.6232322  36.2256739
  26.9282012  10.5511051  35.0616926  26.8135527   9.6496308  35.3624025
  26.0726530  10.7974748  34.7101742  34.0073850  18.4928792  36.6604427
  33.5637704  17.7065170  36.3425331  34.6691063  18.6807942  35.9948317
  36.1055088  18.7731591  34.6885828  36.0873563  19.5940472  34.1966097
  37.0275008  18.6485667  34.9135969  32.5628142  16.2875721  35.5309336
  33.0956479  15.5264009  35.3008644  32.0342223  15.9949373  36.2733491
  23.7983688  13.7169317  23.8791580  24.6358910  14.1266326  23.6625288
  23.9761955  12.7768760  23.8491774  35.6948120  11.3844398  19.5675413
  35.1794743  12.1549003  19.8063800  35.4225428  10.7109534  20.1908475
  33.2795231   6.2294099  24.6260651  32.4236827   5.8400949  24.4466290
  33.6922183   6.3086060  23.7660437  34.8094377   3.7640442  29.0252211
  34.3059173   3.7270577  28.2120016  35.1024984   4.6733185  29.0848868
  31.0537263   3.8479172  28.0318393  31.9190260   3.6521980  27.6724282
  31.1214772   3.6189524  28.9587750  40.6682394  14.1376753  21.5028587
  39.8911837  13.7987912  21.0583749  41.3473875  14.1429376  20.8283552
  35.4834423   9.2571490  21.3935194  35.1784559   9.5717639  22.2445337
  36.4364865   9.3352910  21.4362527  33.9280855  15.4161713  23.0428148
  33.4002216  14.6814473  22.7301386  33.4268358  16.1936390  22.7968117
  38.9073701  13.6110734  28.1595195  38.2497375  14.3009995  28.2475323
  39.7114100  14.0007166  28.5029181  28.6599582   6.0781380  25.4034760
  29.2343334   5.8556561  24.6707953  29.2470565   6.1470074  26.1563361
  37.7179160  11.9655107  26.2099136  38.2311041  12.5985098  26.7120846
  38.3680384  11.3656302  25.8442496  28.9869170   8.1085841  19.4230645
  28.1506482   8.4460527  19.7439920  28.8473939   7.9734821  18.4857782
  30.9622250   2.9522629  24.1309829  30.3086662   2.6371646  23.5066444
  30.9202724   2.3298369  24.8569652  32.0733455  13.2341924  16.0463121
  31.1660517  13.0031177  16.2454270  32.5704487  12.4379543  16.2337103
  34.9801534  21.9439431  18.9659807  34.3063233  22.2471128  19.5744765
  35.3667356  22.7468511  18.6165264  34.1959990   9.4404562  28.4557477
  33.2782552   9.6619509  28.2979165  34.6120134   9.5150873  27.5969184
  34.9795038  10.8395978  23.5860157  35.7266857  11.3517375  23.2767279
  35.2486628  10.5180031  24.4464551  33.2521688  13.3354519  20.5687111
  32.3432908  13.0513551  20.6659581  33.2816772  13.7553597  19.7090418
  38.4840956  16.9461108  24.3378279  38.0303283  16.1052018  24.3943469
  37.8534923  17.5822506  24.6753059  37.4273875   7.8753094  25.5678946
  36.6896632   7.3630480  25.8989189  37.6800649   7.4353476  24.7562223
  23.8209859  11.0560033  24.5502314  23.6234259  10.4629393  23.8253380
  23.2656523  10.7512243  25.2678252  31.8006582  10.9483139  26.6696907
  31.8555192   9.9956976  26.5939383  30.9897784  11.1042578  27.1538205
  32.9497776  14.8763262  17.9075190  32.5117206  14.1599121  17.4480827
  33.6908217  15.1039377  17.3460281  29.7398942   9.5660199  24.4287286
  28.9266808   9.8654369  24.8352478  30.2357937   9.1715888  25.1461768
  35.3373154  10.0302023  33.2602179  35.6922542  10.2573496  34.1196645
  35.9845285  10.3620400  32.6379435  41.0670891  13.1520459  23.9651508
  40.9288790  13.3422055  23.0372698  40.7107110  13.9139842  24.4219560
  29.2313017   7.1378554  30.0448521  29.8712396   6.9967314  29.3471484
  28.3990548   6.8513068  29.6687123  41.0940271  15.2196986  28.9762780
  41.5276777  15.1272275  29.8245834  41.8071851  15.1954487  28.3382796
  26.3156085  10.5824067  22.2343266  25.3853673  10.5208522  22.4513228
  26.4113557  10.0600019  21.4379907  26.2341634   7.1078879  24.8221507
  26.4948451   8.0224213  24.7130668  27.0558806   6.6403322  24.9718120
  27.7066559   8.5216637  31.9920332  28.3789612   8.3133999  31.3432981
  26.8796345   8.3238723  31.5525564  41.9555820  15.2620687  31.5095665
  42.1491710  16.1666497  31.7554940  41.8556438  14.8028106  32.3434250
  33.6092131   5.1478577  34.0085993  32.9620046   5.8468527  33.9150469
  34.3793146   5.5814721  34.3762241  37.0170929  15.4127430  37.0836546
  36.8656435  15.1837981  36.1666630  37.0075608  16.3698031  37.0967891
  33.7856265  12.9859342  32.0682812  34.7148325  13.1370502  31.8951780
  33.3647295  13.0743363  31.2131459  33.1792749  22.1119103  21.1806887
  33.3544505  21.6407146  21.9952509  32.4925537  22.7384869  21.4088147
  34.1349812  16.3891610  27.2270188  33.7999645  16.3492379  28.1227838
  33.6353758  15.7236325  26.7540598  28.1094056  11.7959240  32.7522769
  27.9713854  11.0639478  33.3534308  29.0198980  11.7068140  32.4706957
  37.0709004  13.7347644  17.5007248  36.4538174  13.0094472  17.4040300
  36.6025492  14.4957004  17.1574322  30.7376357  11.5079199  32.2406449
  31.4475975  10.8672391  32.1993067  30.6945665  11.7592094  33.1632629
  38.7263135  18.4446552  35.1613028  38.6675682  17.7605772  34.4943611
  39.1282654  19.1865542  34.7093654  29.4505291   8.4944417  34.0602088
  28.9142648   8.0435155  34.7123684  28.8621999   8.6290326  33.3172552
  28.8607550   7.9533068  16.6228552  27.9837016   7.8321869  16.2590798
  29.3365303   7.1619146  16.3707440  38.7280543  16.4086136  33.3927008
  37.8407322  16.0712058  33.5153406  39.2979094  15.6769167  33.6295773
  20.3809690  12.7410228  26.7170059  21.0680730  12.4271958  26.1291074
  20.2257819  13.6451593  26.4437310  25.1844412   7.6300424  31.1455083
  25.1002601   7.0226094  30.4105493  24.3627118   8.1209443  31.1464579
  32.0471476  20.3059359  23.8691072  31.2638998  20.8481039  23.9629297
  32.7464221  20.8233338  24.2685313  35.3568126   6.1153988  26.5125278
  35.8536825   5.3623950  26.1926348  34.5855107   6.1518305  25.9468487
  43.2097883  11.8194354  28.1543569  43.1987760  12.7019069  27.7837502
  42.3415263  11.4665904  27.9598106  36.4397907  14.8725675  24.0863701
  35.5054185  14.9927138  23.9168405  36.6174575  13.9698142  23.8223711
  31.9403095   8.2571371  26.2396962  31.5700882   7.7042411  26.9277868
  32.4362187   7.6529504  25.6871962  39.8270458  10.7142994  24.6213735
  40.2930910  11.5470986  24.5474038  40.2777958  10.2487976  25.3258994
  37.8946689  17.0586816  21.6199887  38.1706533  16.9443410  22.5293761
  37.0251188  16.6604301  21.5812060  37.7987121   3.0823581  28.6604637
  36.8850200   3.3127808  28.8286843  38.2280222   3.1662026  29.5118669
  37.5693579  11.2713473  31.1604531  36.9165029  11.5189381  30.5056983
  37.9473959  10.4577612  30.8267008  34.8642919  20.2341352  22.5247749
  35.3930685  19.7233806  21.9117911  35.1271138  19.9183882  23.3893282
  33.6181152  12.0133284  37.6470568  32.9421789  11.9127414  38.3172943
  34.4408786  11.8572498  38.1106565  19.9577666  10.8210821  28.9887526
  19.9961766  10.2874412  29.7824644  19.4517959  10.2946027  28.3698503
  27.3368428   5.6675362  32.4850068  27.4009755   6.5290193  32.0727466
  27.2735549   5.0549363  31.7522427  26.8120701   7.7398494  36.1323103
  27.4392740   7.3575572  36.7460627  25.9548620   7.5212696  36.4978795
  37.2114809  18.1461469  37.7376838  37.7554713  18.7591428  37.2431793
  36.6301654  18.7041048  38.2543851  23.5886244   9.5474923  22.0641457
  23.8839685   8.6385602  22.0108511  22.6874279   9.5262663  21.7422460
  27.1180491   7.6230920  28.0469006  26.3967076   8.2366888  27.9076479
  27.9073746   8.1588685  27.9685652  37.5607231  19.0691208  30.4971416
  36.6137566  18.9496559  30.4249743  37.9090004  18.1813706  30.5797677
  29.9206804   4.9585346  34.3209658  30.4441206   5.2047643  35.0835967
  29.7019137   5.7905381  33.9012795  25.3174085   7.2289021  22.1880783
  24.9886791   6.3486400  22.0055889  25.6713456   7.1736690  23.0757172
  28.4315908   7.5161991  22.5556260  28.7711981   8.0447912  21.8334869
  28.8788029   7.8542397  23.3314827  31.1259349   5.8999042  32.0059328
  30.7856170   5.1006855  32.4080008  30.4198355   6.2000752  31.4336162
  31.7775821   2.9848354  30.4586651  32.6001890   2.5108832  30.3365542
  32.0213885   3.7638838  30.9585338  30.4184055   6.0136612  20.7549553
  31.1392418   6.3917865  20.2513270  29.7949360   6.7325489  20.8584531
  34.5615178   6.7181761  21.6907885  34.7778793   7.6006399  21.3896714
  34.0809246   6.3267975  20.9613527  29.3014400   9.6767475  28.2678630
  29.1558980   9.9907778  29.1602911  28.8239603  10.2952375  27.7149529
  31.1610783   6.6670023  28.3159520  31.1472351   5.7711116  27.9791817
  31.8783211   6.6740686  28.9497806  33.0136913   7.1007363  30.3612647
  32.7554691   8.0224433  30.3596977  32.4821954   6.7037797  31.0513111
  37.9583102  20.2058150  23.1402732  38.1319980  19.6404572  22.3876585
  38.4511993  21.0059045  22.9582222  23.7760062  12.2172819  31.2066291
  23.2313530  12.9932627  31.3386565  24.6539412  12.5643624  31.0485413
  30.5647679   5.5484403  23.5847090  30.6863590   4.6201049  23.7837977
  30.2749721   5.5623089  22.6725405  33.4338869   3.2339313  26.7213809
  33.4560566   3.2978646  25.7665789  33.8506928   2.3943822  26.9154316
  43.8122493  12.9694573  24.7593032  44.2553639  12.2201898  24.3612155
  42.9349004  12.9604709  24.3766764  38.9458275  19.5224914  20.2399631
  39.6409179  20.1431607  20.4586945  39.2881425  18.6720266  20.5152008
  24.5626084  11.3442715  34.0996448  23.8207820  11.4925351  34.6861078
  24.2418828  11.6050981  33.2363197  40.8449698  16.9724620  21.7686961
  41.3701022  17.3111893  21.0436281  40.7572050  16.0371635  21.5850096
  23.2091302  17.1494470  27.0895776  22.3723211  16.7216645  26.9079777
  23.1814948  17.3426914  28.0266567  30.0488758   7.0616400  37.7937022
  30.0976914   7.9378523  37.4114792  30.5911272   6.5193793  37.2208665
  40.5343604  17.6057524  37.0738159  39.7439147  17.5881662  36.5342659
  40.2976958  18.1445817  37.8287196  40.6541479  14.4549990  34.3870888
  40.7039484  14.2899997  35.3286411  40.5455402  13.5877249  33.9968769
  29.5377738  17.1338536  21.6762977  29.6865858  17.8174000  21.0229650
  30.3444181  17.1143626  22.1912433  37.9445241  10.4380918  35.7030195
  38.8455104  10.2987383  35.4114192  38.0193216  10.6035373  36.6428372
  32.2788047   7.8147773  34.5483381  31.4091356   8.1081339  34.2765969
  32.5147527   8.3988218  35.2690645  42.1559676  16.8746931  34.6312909
  41.8644484  17.2376912  35.4676370  41.5431807  16.1613940  34.4526241
  43.3555358  14.4399811  27.1515480  44.1902249  14.8789615  27.3153040
  43.4914487  13.9638464  26.3323725  40.4046864  11.9979546  33.0992967
  40.8800985  12.1907192  32.2911819  39.4812429  12.0538732  32.8536351
  27.2930370  13.1603713  22.6824046  27.0476412  12.2566043  22.8804256
  27.4626285  13.1620864  21.7403524  34.9827080   4.0327390  32.0648801
  35.5009024   4.7688417  31.7395290  34.6282213   4.3391383  32.8995560
  26.5626018   8.8932071  20.1810207  25.8695263   8.9676426  19.5250243
  26.3177770   8.1292414  20.7031724  33.0373143  19.6286666  19.1474724
  32.4647110  20.2476853  18.6945196  33.6105937  20.1786028  19.6814646
  39.1048533   8.8745306  31.3321273  40.0565956   8.9743404  31.3533497
  38.9351983   8.0823575  31.8419357  37.1262912   5.9600889  31.5180674
  36.5312844   6.2405902  30.8227163  36.8412609   6.4494790  32.2897415
  36.2570403  19.9123816  20.2783306  37.1901076  19.8469378  20.4816182
  36.1693616  20.7480083  19.8197839  38.8858419  19.2289687  17.2387254
  38.8072051  18.8949550  18.1323012  39.7068086  19.7211454  17.2378726
  41.5836611  12.0951426  30.4463573  41.5512931  11.1567427  30.6323256
  42.1937234  12.1735463  29.7129398  33.4219942  10.9647479  16.4890777
  34.3679046  10.8353687  16.5579195  33.0434186  10.2262141  16.9660205
  41.7331099   8.8862469  30.4921856  41.2170148   8.1020926  30.3051785
  42.6171048   8.5581186  30.6568375  47.4013161  13.1567433  29.5869609
  48.1316549  12.8952721  30.1477313  46.7920106  12.4196155  29.6271677
  45.4828458  11.2975295  30.1844061  44.7561621  11.1631260  29.5760552
  45.0675745  11.6052124  30.9900779  33.3058634  15.0165225  37.9491434
  34.2261644  15.1943824  38.1431480  33.2708217  14.0721270  37.7971133
  31.6062859   8.8897455  16.4245662  30.6994314   8.5930568  16.5008376
  31.8838840   8.5927273  15.5579948  22.5240799  10.2103819  26.8744708
  22.2043583   9.3569127  26.5819082  21.9774227  10.4252397  27.6302676
  26.3020707  12.9266260  30.5914215  26.5206716  13.8583367  30.6102249
  26.7146480  12.5674234  31.3769019  33.2224924   3.4334345  22.5789903
  32.4125653   3.0881430  22.9545149  33.9109341   3.1241889  23.1677515
  35.1515473   2.5112392  24.2014200  35.7046511   2.9307845  24.8604223
  35.3885559   1.5848140  24.2437156  31.1748572   8.4999465  39.9816964
  31.0745299   9.4493822  39.9129055  30.9570114   8.1717704  39.1093034
  30.3761643   5.7484390  16.5657641  31.2380807   6.0739289  16.8253458
  30.5611987   4.9615886  16.0530707  22.3929059  13.8306730  28.8437830
  21.6992531  13.4160683  28.3307784  23.1402050  13.8727267  28.2471249
  38.5294280   4.6212917  23.7092864  37.9492949   5.2797721  23.3270917
  38.2630212   3.7990261  23.2980282  36.9797846   4.0217975  25.9114184
  37.4797625   4.1334509  25.1028503  37.6233454   3.7179027  26.5514993
  31.0379842  11.9296604  38.7982025  30.5546924  12.7296964  39.0045914
  31.1240781  11.9404549  37.8449469  24.3065802  13.7624984  26.7203845
  24.2836490  13.8612671  25.7685728  24.6166438  14.6090135  27.0421011
  26.9653179  15.8201139  30.8350459  27.9196433  15.7885081  30.7680391
  26.7665703  15.3591763  31.6500685  27.5552562  14.3902255  33.4021257
  28.3745451  14.8846334  33.4256094  27.8289369  13.4734223  33.3738824
  37.3119158   6.7813007  22.7649212  36.4245013   7.0662658  22.5469407
  37.7273147   6.6206771  21.9176489  40.6633694   6.8059528  26.4803552
  41.4394084   7.2955981  26.7528168  39.9381828   7.2317582  26.9375421
  43.1006253   7.5187147  27.5377492  43.6950743   7.2782883  26.8270800
  43.1732836   6.7994278  28.1651029  36.4562371  16.5457682  16.8597232
  37.1598221  16.7507684  17.4754888  35.7325020  17.1134444  17.1246316
  37.2860182  12.2967543  22.9799503  37.2295383  12.7536095  22.1407135
  37.8388524  11.5358228  22.8022345  41.0964987   8.0857275  23.8049622
  40.8401922   7.6853911  24.6357830  40.4717856   8.8001069  23.6799761
  45.4077325  10.8253348  26.3120913  44.8476883  10.8946538  27.0852475
  44.8020829  10.6494333  25.5920410  38.3649069  16.9840211  18.9095692
  39.1994673  16.5521410  18.7273167  38.2033412  16.8122225  19.8372587
  38.0194961  13.4872324  20.2752032  37.9643765  13.3216596  19.3340476
  37.3941016  14.1948357  20.4314221  22.8087476   8.7240389  34.1013454
  23.4546339   8.2139343  34.5900679  22.6004627   9.4609070  34.6756879
  35.3340868  15.7921236  39.6005594  36.2032028  15.9661889  39.2392229
  34.8547620  16.6115653  39.4781324  31.3291086   2.9880433  19.8537350
  31.3169756   3.9322273  20.0105621  32.2214508   2.8050579  19.5596811
  27.1484967   5.8708006  38.1988468  28.0116428   5.5144811  38.4091793
  26.5750378   5.5321901  38.8863872  46.9933344  27.5009862  29.0050869
  47.6311754  27.3816610  28.3014209  46.8754187  28.4490706  29.0638821
  43.8023050  27.4537290  28.9412394  43.4641562  27.3378355  28.0532929
  44.6712818  27.0528455  28.9213400  39.6609866  29.3072767  24.9309285
  39.0974731  29.2162704  24.1625573  39.5462261  28.4872671  25.4111777
  44.2842833  28.6072142  34.8998599  44.2731474  28.2124940  34.0279103
  44.4463473  27.8738215  35.4932371  37.2074298  30.8023958  27.7693505
  37.9995590  30.4614783  27.3539805  37.4470948  30.9118933  28.6895659
  45.2409424  32.9743734  20.2423750  44.5897404  33.5597815  19.8557764
  46.0353787  33.5049929  20.3018787  39.1665052  30.0632872  20.6410884
  39.9395928  29.5161859  20.5023760  39.5190450  30.9277121  20.8525345
  41.0050094  31.3909254  33.8477783  40.7139960  32.2954885  33.7324450
  41.6407079  31.4325781  34.5621853  41.9306301  28.7686102  30.4379143
  42.5269873  28.5442125  29.7236106  41.9881273  28.0270848  31.0404591
  41.5031329  26.2225538  18.2729334  41.7556850  25.7007059  17.5112797
  40.5655889  26.0591683  18.3756018  46.5474612  25.2261316  26.0804077
  47.3337701  24.8080739  25.7294494  46.8113317  26.1307408  26.2485726
  46.7184690  30.6634166  20.7792734  46.0830523  30.7368793  21.4913639
  46.3882096  31.2527765  20.1011813  51.9483039  25.1636549  26.9837056
  52.6808211  24.5935766  27.2174885  51.1922395  24.7758150  27.4243561
  41.2227618  28.1253644  20.4753709  41.1063876  27.4498547  21.1434793
  41.3329878  27.6386018  19.6585862  43.5659159  27.5863791  24.1800398
  43.2017366  27.0594412  24.8913320  44.4226275  27.1962260  24.0066884
  49.4708460  18.8758123  31.4431664  49.1391785  19.7453534  31.2192879
  48.8754073  18.5594407  32.1225695  43.2064646  22.6153690  19.1761747
  43.3739048  23.4833927  19.5432218  43.0161815  22.7780972  18.2523036
  45.9639979  31.0770669  30.8427577  45.6640702  31.9795708  30.7343384
  45.6191039  30.8102853  31.6948730  49.3637123  23.5953210  28.5225014
  48.4554000  23.5268618  28.2283775  49.3124719  24.0725154  29.3506840
  43.1853867  25.0711348  20.1608414  43.0653492  25.5168399  20.9993894
  42.4906455  25.4196666  19.6021952  40.9460759  37.8414990  23.8098545
  40.8684789  38.7922815  23.8887025  40.3422403  37.4960862  24.4673471
  43.4377989  25.0142855  36.4659912  42.6611323  25.5736775  36.4562776
  44.0768552  25.4999638  36.9874782  51.2298769  21.7969648  30.3002888
  50.5873150  22.0902181  29.6542683  50.7253698  21.6822568  31.1056085
  48.8838933  25.5432821  20.9888748  49.7956789  25.7760208  20.8136445
  48.3748580  26.1269865  20.4263826  41.6924361  27.8228309  36.0277879
  42.4339046  28.3613352  35.7512702  40.9861347  28.4494597  36.1849430
  47.1679701  29.9657449  34.6250040  47.5763057  29.5239860  33.8804673
  46.4456962  29.3910076  34.8784233  43.5210771  24.9030056  31.9983597
  44.3671966  25.3269469  32.1418246  43.4609409  24.2463680  32.6922160
  47.4908515  30.5258640  28.3802329  46.8617378  30.6904354  27.6778397
  47.1034178  30.9400249  29.1513293  51.3697747  31.4613077  25.7346693
  50.6848785  31.8411979  25.1843726  51.4541597  32.0708404  26.4678641
  46.6710216  22.5634424  33.6564771  46.4271148  23.3176485  33.1199046
  46.9470147  22.9419772  34.4912018  48.6248679  29.1073036  32.3342036
  48.8365574  29.7504796  31.6576417  48.5778427  28.2735353  31.8663966
  46.2274908  21.7190857  29.2378608  45.3659387  22.0172111  29.5295346
  46.2537343  21.9361256  28.3059641  43.0436477  30.2633048  25.6452414
  43.5074823  30.5420751  24.8557037  42.7793275  29.3616492  25.4625505
  39.9360558  29.8104529  28.5832177  40.5061915  30.2391798  27.9449662
  40.5268670  29.5287114  29.2816363  41.9805363  26.3856200  22.4541979
  42.6829407  26.8377244  22.9215906  41.6485992  25.7440019  23.0821872
  40.4285725  24.9767957  36.8293189  39.7984385  25.6584238  37.0628585
  40.3221813  24.8651038  35.8846327  49.7394507  31.9844992  30.5064394
  50.5611951  31.5825179  30.2247075  49.7356910  31.8813226  31.4580509
  43.5051110  31.5329035  32.6625104  43.5695543  31.9949442  33.4983276
  42.7962034  30.9026400  32.7907414  43.2199128  33.1997143  22.5304084
  43.0844803  34.0448678  22.9588932  43.7608940  33.4016420  21.7670018
  39.7066468  19.2788723  39.1918440  39.3133413  18.7254921  39.8666084
  40.5232608  19.5899301  39.5824957  36.6728525  30.7172581  23.1032010
  37.1853046  31.5115831  23.2537574  37.3251238  30.0198871  23.0365611
  38.4823410  33.8338337  25.1854763  38.6590038  34.7556302  24.9975747
  39.2780244  33.5196756  25.6149143  42.6234429  20.6946602  36.7838696
  43.3644142  21.2953755  36.7043159  42.8552351  19.9524239  36.2256739
  44.8467604  33.8220709  36.6604427  44.4031459  33.0357088  36.3425331
  45.5084818  34.0099860  35.9948317  39.6054726  35.3516511  31.1865105
  40.1562151  35.2233574  30.4142099  38.7666201  35.6511400  30.8359998
  46.9448842  34.1023509  34.6885828  46.9267318  34.9232390  34.1966097
  47.8668762  33.9777584  34.9135969  43.4021897  31.6167639  35.5309336
  43.9350233  30.8555927  35.3008644  42.8735978  31.3241290  36.2733491
  46.5691592  16.7227705  31.0602978  46.2255861  17.6129346  30.9842089
  46.9370554  16.5329362  30.1972563  46.5341874  26.7136316  19.5675413
  46.0188498  27.4840920  19.8063800  46.2619183  26.0401452  20.1908475
  44.1188985  21.5586016  24.6260651  43.2630582  21.1692867  24.4466290
  44.5315937  21.6377977  23.7660437  45.6488132  19.0932360  29.0252211
  45.1452928  19.0562495  28.2120016  45.9418739  20.0025102  29.0848868
  41.8931018  19.1771089  28.0318393  42.7584015  18.9813898  27.6724282
  41.9608527  18.9481441  28.9587750  51.5076148  29.4668670  21.5028587
  50.7305591  29.1279830  21.0583749  52.1867629  29.4721293  20.8283552
  46.3228177  24.5863408  21.3935194  46.0178313  24.9009557  22.2445337
  47.2758620  24.6644828  21.4362527  44.7674609  30.7453631  23.0428148
  44.2395971  30.0106391  22.7301386  44.2662112  31.5228307  22.7968117
  49.7467455  28.9402652  28.1595195  49.0891130  29.6301913  28.2475323
  50.5507855  29.3299084  28.5029181  48.5572914  27.2947024  26.2099136
  49.0704796  27.9277016  26.7120846  49.2074138  26.6948220  25.8442496
  39.8262924  23.4377758  19.4230645  38.9900236  23.7752445  19.7439920
  39.6867694  23.3026738  18.4857782  41.8016005  18.2814546  24.1309829
  41.1480417  17.9663563  23.5066444  41.7596479  17.6590287  24.8569652
  42.9127209  28.5633841  16.0463121  42.0054271  28.3323095  16.2454270
  43.4098241  27.7671461  16.2337103  45.8195288  37.2731349  18.9659807
  45.1456987  37.5763045  19.5744765  46.2061110  38.0760429  18.6165264
  45.0353745  24.7696480  28.4557477  44.1176306  24.9911427  28.2979165
  45.4513889  24.8442790  27.5969184  45.8188793  26.1687895  23.5860157
  46.5660612  26.6809293  23.2767279  46.0880382  25.8471948  24.4464551
  44.0915443  28.6646436  20.5687111  43.1826662  28.3805469  20.6659581
  44.1210527  29.0845515  19.7090418  49.3234710  32.2753026  24.3378279
  48.8697037  31.4343936  24.3943469  48.6928677  32.9114424  24.6753059
  48.2667630  23.2045012  25.5678946  47.5290387  22.6922398  25.8989189
  48.5194403  22.7645393  24.7562223  47.7667650  34.1129522  25.2728097
  48.0590624  34.6734580  24.5540463  48.2766270  34.4058083  26.0281256
  48.3679257  15.9821264  26.1620716  48.6738134  15.1218627  25.8746631
  49.0931862  16.5738884  25.9619710  42.6400337  26.2775057  26.6696907
  42.6948947  25.3248893  26.5939383  41.8291539  26.4334496  27.1538205
  43.7891531  30.2055180  17.9075190  43.3510961  29.4891039  17.4480827
  44.5301972  30.4331295  17.3460281  40.5792697  24.8952117  24.4287286
  39.7660562  25.1946287  24.8352478  41.0751691  24.5007805  25.1461768
  42.7301275  34.8909873  26.3621550  42.6877454  35.1170720  25.4330082
  43.6463974  34.6573248  26.5107351  46.1766909  25.3593941  33.2602179
  46.5316296  25.5865414  34.1196645  46.8239040  25.6912318  32.6379435
  51.9064645  28.4812377  23.9651508  51.7682544  28.6713973  23.0372698
  51.5500864  29.2431760  24.4219560  40.0706772  22.4670472  30.0448521
  40.7106151  22.3259231  29.3471484  39.2384302  22.1804985  29.6687123
  51.9334025  30.5488904  28.9762780  52.3670532  30.4564193  29.8245834
  52.6465606  30.5246404  28.3382796  40.8467076  31.7672903  26.1583513
  41.6407674  31.2723223  25.9566088  40.1358768  31.2390766  25.7951219
  45.6661920  34.1490998  30.5095881  45.7198942  34.7181934  31.2773596
  44.7976701  34.3192883  30.1449918  37.1549839  25.9115984  22.2343266
  36.2247427  25.8500440  22.4513228  37.2507311  25.3891937  21.4379907
  38.5460313  23.8508554  31.9920332  39.2183367  23.6425916  31.3432981
  37.7190100  23.6530640  31.5525564  52.7949575  30.5912605  31.5095665
  52.9885465  31.4958415  31.7554940  52.6950193  30.1320024  32.3434250
  44.4485885  20.4770495  34.0085993  43.8013800  21.1760445  33.9150469
  45.2186901  20.9106639  34.3762241  47.8564683  30.7419347  37.0836546
  47.7050190  30.5129899  36.1666630  47.8469363  31.6989949  37.0967891
  44.6250020  28.3151260  32.0682812  45.5542080  28.4662420  31.8951780
  44.2041050  28.4035281  31.2131459  43.4238352  32.3401924  29.8381350
  43.2849437  31.9720709  30.7107288  42.6352948  32.8549564  29.6665308
  44.0186504  37.4411021  21.1806887  44.1938259  36.9699064  21.9952509
  43.3319292  38.0676787  21.4088147  44.9743567  31.7183527  27.2270188
  44.6393399  31.6784297  28.1227838  44.4747512  31.0528243  26.7540598
  38.9487811  27.1251157  32.7522769  38.8107609  26.3931396  33.3534308
  39.8592734  27.0360057  32.4706957  47.9102758  29.0639562  17.5007248
  47.2931929  28.3386390  17.4040300  47.4419247  29.8248922  17.1574322
  41.5770111  26.8371117  32.2406449  42.2869730  26.1964309  32.1993067
  41.5339419  27.0884011  33.1632629  49.5656890  33.7738470  35.1613028
  49.5069436  33.0897690  34.4943611  49.9676408  34.5157460  34.7093654
  40.2899045  23.8236334  34.0602088  39.7536402  23.3727073  34.7123684
  39.7015754  23.9582243  33.3172552  38.5847589  40.5900384  27.9546747
  38.8244187  41.2218908  28.6325765  37.7416785  40.2388424  28.2412106
  39.7001304  23.2824986  16.6228552  38.8230771  23.1613787  16.2590798
  40.1759057  22.4911064  16.3707440  49.5674297  31.7378054  33.3927008
  48.6801076  31.4003976  33.5153406  50.1372848  31.0061085  33.6295773
  43.0975451  36.3979506  30.3588251  43.0245622  37.2034478  30.8707555
  42.6552844  36.5971472  29.5336272  42.8865230  35.6351276  23.8691072
  42.1032752  36.1772956  23.9629297  43.5857975  36.1525256  24.2685313
  46.1961880  21.4445906  26.5125278  46.6930580  20.6915868  26.1926348
  45.4248862  21.4810222  25.9468487  54.0491638  27.1486271  28.1543569
  54.0381514  28.0310987  27.7837502  53.1809017  26.7957822  27.9598106
  45.5574134  36.2966340  32.5146409  46.2702106  36.9313805  32.4422311
  45.0664163  36.3930206  31.6986411  47.2791661  30.2017593  24.0863701
  46.3447940  30.3219055  23.9168405  47.4568330  29.2990060  23.8223711
  42.7796849  23.5863289  26.2396962  42.4094637  23.0334329  26.9277868
  43.2755942  22.9821422  25.6871962  50.6664212  26.0434912  24.6213735
  51.1324665  26.8762904  24.5474038  51.1171713  25.5779894  25.3258994
  40.6086048  34.0460784  33.3351980  41.3095507  34.6797267  33.4881374
  40.1381163  34.3875515  32.5747619  48.7340444  32.3878733  21.6199887
  49.0100287  32.2735328  22.5293761  47.8644942  31.9896218  21.5812060
  48.6380875  18.4115499  28.6604637  47.7243955  18.6419726  28.8286843
  49.0673977  18.4953943  29.5118669  48.4087334  26.6005391  31.1604531
  47.7558784  26.8481299  30.5056983  48.7867714  25.7869529  30.8267008
  45.3694508  36.6365084  25.2632701  45.5516902  35.8186740  25.7260453
  46.1927494  36.8532777  24.8257591  45.7036673  35.5633269  22.5247749
  46.2324439  35.0525724  21.9117911  45.9664893  35.2475800  23.3893282
  44.4574907  27.3425202  37.6470568  43.7815544  27.2419331  38.3172943
  45.2802541  27.1864416  38.1106565  39.0592421  36.6148386  25.2845525
  38.3902796  37.0994514  24.8009565  38.9205291  36.8617607  26.1988904
  43.1997690  38.6492130  31.8828184  43.7515998  38.8123751  32.6477269
  43.5403883  39.2396567  31.2108208  38.1762183  20.9967279  32.4850068
  38.2403509  21.8582110  32.0727466  38.1129303  20.3841281  31.7522427
  37.6514455  23.0690412  36.1323103  38.2786494  22.6867489  36.7460627
  36.7942374  22.8504614  36.4978795  48.0508564  33.4753387  37.7376838
  48.5948468  34.0883345  37.2431793  47.4695409  34.0332966  38.2543851
  46.3366077  36.5974105  28.8691866  46.2117216  35.7963845  28.3602811
  46.9945168  37.0920299  28.3805836  48.4000985  34.3983125  30.4971416
  47.4531321  34.2788476  30.4249743  48.7483758  33.5105623  30.5797677
  40.7600559  20.2877264  34.3209658  41.2834960  20.5339561  35.0835967
  40.5412892  21.1197299  33.9012795  45.4047419  34.1935841  26.6975768
  45.2572381  33.2652549  26.8783338  46.2300912  34.2155932  26.2132843
  39.2709663  22.8453909  22.5556260  39.6105735  23.3739830  21.8334869
  39.7181783  23.1834315  23.3314827  49.0081540  35.0164400  27.7840641
  49.9328088  34.8107262  27.6465092  48.8396844  34.7680801  28.6929982
  41.9653104  21.2290959  32.0059328  41.6249924  20.4298772  32.4080008
  41.2592110  21.5292670  31.4336162  42.6169575  18.3140272  30.4586651
  43.4395645  17.8400750  30.3365542  42.8607639  19.0930755  30.9585338
  41.2577810  21.3428530  20.7549553  41.9786172  21.7209783  20.2513270
  40.6343114  22.0617407  20.8584531  45.4008933  22.0473679  21.6907885
  45.6172547  22.9298317  21.3896714  44.9203000  21.6559893  20.9613527
  42.0004537  21.9961940  28.3159520  41.9866106  21.1003034  27.9791817
  42.7176965  22.0032604  28.9497806  43.8530668  22.4299281  30.3612647
  43.5948446  23.3516351  30.3596977  43.3215708  22.0329715  31.0513111
  48.7976857  35.5350068  23.1402732  48.9713734  34.9696490  22.3876585
  49.2905748  36.3350963  22.9582222  41.4041433  20.8776321  23.5847090
  41.5257344  19.9492967  23.7837977  41.1143475  20.8915007  22.6725405
  44.2732623  18.5631231  26.7213809  44.2954320  18.6270564  25.7665789
  44.6900682  17.7235740  26.9154316  49.7852029  34.8516832  20.2399631
  50.4802934  35.4723525  20.4586945  50.1275179  34.0012183  20.5152008
  51.6843452  32.3016538  21.7686961  52.2094776  32.6403810  21.0436281
  51.5965805  31.3663553  21.5850096  43.3463501  36.2150611  33.8976838
  43.6550627  35.9699758  34.7699538  44.1438983  36.4197250  33.4095708
  43.3684113  38.3688521  26.1282215  42.9289103  37.8764900  26.8215071
  44.1192230  37.8261489  25.8874290  35.8476452  34.5600062  26.1306843
  36.6734472  34.2603834  25.7505486  35.4970504  33.7907684  26.5796631
  40.8157985  33.9126530  28.2004516  40.1937994  33.2497235  27.9006744
  41.4862852  33.9387662  27.5178164  40.8882513  22.3908318  37.7937022
  40.9370668  23.2670441  37.4114792  41.4305027  21.8485711  37.2208665
  51.3737358  32.9349441  37.0738159  50.5832902  32.9173580  36.5342659
  51.1370713  33.4737735  37.8287196  51.4935233  29.7841908  34.3870888
  51.5433238  29.6191915  35.3286411  51.3849157  28.9169167  33.9968769
  40.3771492  32.4630453  21.6762977  40.5259612  33.1465918  21.0229650
  41.1837935  32.4435543  22.1912433  48.7838996  25.7672836  35.7030195
  49.6848858  25.6279300  35.4114192  48.8586970  25.9327290  36.6428372
  43.1181801  23.1439690  34.5483381  42.2485110  23.4373256  34.2765969
  43.3541281  23.7280135  35.2690645  52.9953430  32.2038849  34.6312909
  52.7038238  32.5668830  35.4676370  52.3825561  31.4905857  34.4526241
  51.2440618  27.3271464  33.0992967  51.7194740  27.5199110  32.2911819
  50.3206184  27.3830650  32.8536351  38.1324125  28.4895631  22.6824046
  37.8870167  27.5857961  22.8804256  38.3020040  28.4912781  21.7403524
  45.8220835  19.3619307  32.0648801  46.3402779  20.0980334  31.7395290
  45.4675968  19.6683301  32.8995560  37.4019773  24.2223988  20.1810207
  36.7089017  24.2968343  19.5250243  37.1571524  23.4584332  20.7031724
  46.0733429  15.7819590  27.5849698  46.3535183  15.1142779  28.2110124
  46.8584036  15.9748685  27.0724362  43.8766898  34.9578584  19.1474724
  43.3040865  35.5768771  18.6945196  44.4499691  35.5077945  19.6814646
  49.9442287  24.2037224  31.3321273  50.8959710  24.3035321  31.3533497
  49.7745738  23.4115492  31.8419357  47.9656667  21.2892807  31.5180674
  47.3706599  21.5697820  30.8227163  47.6806364  21.7786708  32.2897415
  47.0964157  35.2415734  20.2783306  48.0294830  35.1761296  20.4816182
  47.0087370  36.0772001  19.8197839  49.7252174  34.5581604  17.2387254
  49.6465806  34.2241468  18.1323012  50.5461841  35.0503372  17.2378726
  52.4230365  27.4243344  30.4463573  52.3906685  26.4859344  30.6323256
  53.0330989  27.5027380  29.7129398  44.2613696  26.2939396  16.4890777
  45.2072801  26.1645605  16.5579195  43.8827941  25.5554058  16.9660205
  52.5724854  24.2154387  30.4921856  52.0563902  23.4312844  30.3051785
  53.4564802  23.8873104  30.6568375  50.2335581  17.9595403  26.4517669
  50.0360402  17.6510491  27.3361000  50.8435286  18.6857041  26.5815598
  44.1452389  30.3457143  37.9491434  45.0655398  30.5235742  38.1431480
  44.1101972  29.4013188  37.7971133  42.4456613  24.2189373  16.4245662
  41.5388069  23.9222486  16.5008376  42.7232594  23.9219191  15.5579948
  44.0618679  18.7626263  22.5789903  43.2519407  18.4173348  22.9545149
  44.7503096  18.4533806  23.1677515  45.9909227  17.8404309  24.2014200
  46.5440266  18.2599763  24.8604223  46.2279314  16.9140057  24.2437156
  42.0142326  23.8291383  39.9816964  41.9139053  24.7785740  39.9129055
  41.7963868  23.5009622  39.1093034  41.2155398  21.0776308  16.5657641
  42.0774562  21.4031206  16.8253458  41.4005742  20.2907804  16.0530707
  49.3688034  19.9504835  23.7092864  48.7886703  20.6089639  23.3270917
  49.1023967  19.1282179  23.2980282  47.8191601  19.3509892  25.9114184
  48.3191379  19.4626427  25.1028503  48.4627209  19.0470945  26.5514993
  41.8773596  27.2588522  38.7982025  41.3940678  28.0588882  39.0045914
  41.9634536  27.2696467  37.8449469  37.8046934  31.1493057  30.8350459
  38.7590188  31.1176999  30.7680391  37.6059458  30.6883680  31.6500685
  48.1512912  22.1104925  22.7649212  47.2638767  22.3954576  22.5469407
  48.5666901  21.9498688  21.9176489  51.5027448  22.1351446  26.4803552
  52.2787839  22.6247898  26.7528168  50.7775583  22.5609500  26.9375421
  53.9400007  22.8479065  27.5377492  54.5344498  22.6074801  26.8270800
  54.0126591  22.1286196  28.1651029  36.1597163  36.6912676  27.8520657
  36.0251631  35.9313077  27.2858655  35.7429225  37.4153576  27.3849446
  47.2956126  31.8749600  16.8597232  47.9991976  32.0799602  17.4754888
  46.5718775  32.4426361  17.1246316  48.1253936  27.6259461  22.9799503
  48.0689137  28.0828012  22.1407135  48.6782279  26.8650145  22.8022345
  51.9358742  23.4149193  23.8049622  51.6795676  23.0145828  24.6357830
  51.3111610  24.1292987  23.6799761  39.3166289  37.5881993  28.0639100
  39.1998673  38.5327426  27.9617790  38.4958735  37.2855555  28.4524899
  49.2042823  32.3132129  18.9095692  50.0388427  31.8813327  18.7273167
  49.0427166  32.1414142  19.8372587  48.8588715  28.8164242  20.2752032
  48.8037519  28.6508514  19.3340476  48.2334771  29.5240275  20.4314221
  46.1734623  31.1213154  39.6005594  47.0425782  31.2953806  39.2392229
  45.6941374  31.9407571  39.4781324  42.1684841  18.3172351  19.8537350
  42.1563511  19.2614191  20.0105621  43.0608263  18.1342497  19.5596811
  40.3420803  38.2410255  31.2795028  41.2448049  38.2733865  31.5961523
  40.1158173  37.3110706  31.2941364  42.0974405  36.9941242  27.9405107
  41.1470036  36.9943103  27.8269479  42.4006891  36.2473976  27.4241141
  45.9836960  14.9115128  24.1083287  45.2169356  14.3573614  24.2539969
  46.3947665  14.9836997  24.9697439  37.9878721  21.1999924  38.1988468
  38.8510183  20.8436728  38.4091793  37.4144132  20.8613818  38.8863872
  50.5003620  44.6364684  24.9309285  49.9368485  44.5454621  24.1625573
  50.3856015  43.8164589  25.4111777  48.0468052  46.1315876  27.7693505
  48.8389344  45.7906701  27.3539805  48.2864702  46.2410851  28.6895659
  50.0058806  45.3924789  20.6410884  50.7789682  44.8453776  20.5023760
  50.3584205  46.2569039  20.8525345  51.8443849  46.7201172  33.8477783
  51.5533715  47.6246802  33.7324450  52.4800833  46.7617699  34.5621853
  52.7700056  44.0978020  30.4379143  53.3663628  43.8734042  29.7236106
  52.8275027  43.3562766  31.0404591  52.3425084  41.5517455  18.2729334
  52.5950605  41.0298977  17.5112797  51.4049643  41.3883601  18.3756018
  52.0621373  43.4545561  20.4753709  51.9457631  42.7790465  21.1434793
  52.1723633  42.9677935  19.6585862  54.0458401  37.9445608  19.1761747
  54.2132803  38.8125845  19.5432218  53.8555570  38.1072890  18.2523036
  50.2546215  42.8576384  26.8764281  49.3296712  42.7252598  27.0841973
  50.5030628  43.6370603  27.3734224  54.0247621  40.4003266  20.1608414
  53.9047247  40.8460316  20.9993894  53.3300210  40.7488583  19.6021952
  47.6155026  42.5009657  27.7108071  47.7447407  42.7544136  28.6247482
  46.9352478  43.0937365  27.3912726  54.2771743  40.3434773  36.4659912
  53.5005077  40.9028693  36.4562776  54.9162306  40.8291556  36.9874782
  52.5318116  43.1520226  36.0277879  53.2732800  43.6905270  35.7512702
  51.8255101  43.7786515  36.1849430  53.8830232  45.5924965  25.6452414
  54.3468577  45.8712668  24.8557037  53.6187030  44.6908410  25.4625505
  50.7754313  45.1396447  28.5832177  51.3455670  45.5683715  27.9449662
  51.3662425  44.8579032  29.2816363  52.8199118  41.7148118  22.4541979
  53.5223161  42.1669161  22.9215906  52.4879746  41.0731937  23.0821872
  51.2679479  40.3059874  36.8293189  50.6378140  40.9876155  37.0628585
  51.1615567  40.1942956  35.8846327  46.5624452  39.9731670  27.7559113
  45.7723506  40.2289199  27.2799223  47.0535699  40.7880008  27.8611153
  48.5139197  40.3376250  24.7142590  47.7170360  40.4494944  25.2326085
  48.2864789  40.6762902  23.8483480  54.3444865  46.8620953  32.6625104
  54.4089297  47.3241360  33.4983276  53.6355789  46.2318318  32.7907414
  44.8462155  40.2262161  30.1874104  45.0970193  41.1109171  30.4531680
  45.3821703  40.0466762  29.4149195  50.5460222  34.6080640  39.1918440
  50.1527168  34.0546839  39.8666084  51.3626362  34.9191219  39.5824957
  47.5122280  46.0464498  23.1032010  48.0246800  46.8407749  23.2537574
  48.1644993  45.3490789  23.0365611  49.3217165  49.1630255  25.1854763
  49.4983793  50.0848219  24.9975747  50.1173998  48.8488674  25.6149143
  53.4628183  36.0238519  36.7838696  54.2037896  36.6245672  36.7043159
  53.6946106  35.2816157  36.2256739  48.6069521  41.2094887  35.0616926
  48.4923036  40.3080144  35.3624025  47.7514039  41.4558583  34.7101742
  54.2415651  46.9459556  35.5309336  54.7743988  46.1847844  35.3008644
  53.7129732  46.6533208  36.2733491  45.4771197  44.3753153  23.8791580
  46.3146419  44.7850161  23.6625288  45.6549464  43.4352595  23.8491774
  52.7324772  34.5063007  28.0318393  53.5977769  34.3105816  27.6724282
  52.8002281  34.2773359  28.9587750  50.3387091  36.7365215  25.4034760
  50.9130843  36.5140397  24.6707953  50.9258074  36.8053910  26.1563361
  50.6656679  38.7669676  19.4230645  49.8293991  39.1044363  19.7439920
  50.5261448  38.6318656  18.4857782  52.6409759  33.6106464  24.1309829
  51.9874171  33.2955481  23.5066444  52.5990233  32.9882204  24.8569652
  53.7520964  43.8925759  16.0463121  52.8448026  43.6615012  16.2454270
  54.2491996  43.0963378  16.2337103  54.9309197  43.9938354  20.5687111
  54.0220417  43.7097387  20.6659581  54.9604281  44.4137432  19.7090418
  45.4997368  41.7143868  24.5502314  45.3021768  41.1213229  23.8253380
  44.9444032  41.4096078  25.2678252  53.4794091  41.6066974  26.6696907
  53.5342701  40.6540811  26.5939383  52.6685293  41.7626414  27.1538205
  51.4186451  40.2244034  24.4287286  50.6054317  40.5238205  24.8352478
  51.9145446  39.8299723  25.1461768  50.9100526  37.7962390  30.0448521
  51.5499905  37.6551149  29.3471484  50.0778057  37.5096903  29.6687123
  51.6860830  47.0964820  26.1583513  52.4801429  46.6015140  25.9566088
  50.9752522  46.5682683  25.7951219  47.9943593  41.2407902  22.2343266
  47.0641182  41.1792357  22.4513228  48.0901065  40.7183855  21.4379907
  47.9129143  37.7662715  24.8221507  48.1735960  38.6808048  24.7130668
  48.7346315  37.2987157  24.9718120  49.3854068  39.1800472  31.9920332
  50.0577121  38.9717834  31.3432981  48.5583854  38.9822558  31.5525564
  49.7881565  42.4543075  32.7522769  49.6501363  41.7223314  33.3534308
  50.6986489  42.3651975  32.4706957  52.4163866  42.1663034  32.2406449
  53.1263484  41.5256226  32.1993067  52.3733174  42.4175929  33.1632629
  51.1292800  39.1528252  34.0602088  50.5930157  38.7018991  34.7123684
  50.5409508  39.2874161  33.3172552  50.5395059  38.6116904  16.6228552
  49.6624525  38.4905704  16.2590798  51.0152812  37.8202982  16.3707440
  42.0597199  43.3994063  26.7170059  42.7468239  43.0855793  26.1291074
  41.9045328  44.3035428  26.4437310  46.8631921  38.2884260  31.1455083
  46.7790110  37.6809929  30.4105493  46.0414627  38.7793278  31.1464579
  53.6190604  38.9155206  26.2396962  53.2488391  38.3626247  26.9277868
  54.1149696  38.3113340  25.6871962  47.0447520  48.9089056  30.2683083
  47.6300957  48.1632744  30.4010987  46.8472359  49.2193013  31.1519747
  41.6365175  41.4794657  28.9887526  41.6749275  40.9458247  29.7824644
  41.1305468  40.9529862  28.3698503  49.0155937  36.3259197  32.4850068
  49.0797264  37.1874028  32.0727466  48.9523058  35.7133199  31.7522427
  48.4908210  38.3982330  36.1323103  49.1180249  38.0159407  36.7460627
  47.6336129  38.1796532  36.4978795  45.2673753  40.2058759  22.0641457
  45.5627194  39.2969437  22.0108511  44.3661788  40.1846498  21.7422460
  48.7968000  38.2814755  28.0469006  48.0754585  38.8950723  27.9076479
  49.5861255  38.8172520  27.9685652  51.5994313  35.6169182  34.3209658
  52.1228715  35.8631478  35.0835967  51.3806646  36.4489217  33.9012795
  46.9961594  37.8872856  22.1880783  46.6674300  37.0070235  22.0055889
  47.3500965  37.8320525  23.0757172  50.1103417  38.1745826  22.5556260
  50.4499490  38.7031747  21.8334869  50.5575538  38.5126232  23.3314827
  52.8046858  36.5582877  32.0059328  52.4643679  35.7590690  32.4080008
  52.0985864  36.8584588  31.4336162  53.4563330  33.6432189  30.4586651
  54.2789399  33.1692668  30.3365542  53.7001393  34.4222673  30.9585338
  52.0971564  36.6720448  20.7549553  52.8179927  37.0501701  20.2513270
  51.4736869  37.3909325  20.8584531  50.9801909  40.3351310  28.2678630
  50.8346489  40.6491613  29.1602911  50.5027112  40.9536210  27.7149529
  52.8398292  37.3253858  28.3159520  52.8259860  36.4294951  27.9791817
  53.5570720  37.3324522  28.9497806  54.6924422  37.7591198  30.3612647
  54.4342200  38.6808269  30.3596977  54.1609463  37.3621633  31.0513111
  45.4547571  42.8756654  31.2066291  44.9101039  43.6516462  31.3386565
  46.3326921  43.2227459  31.0485413  52.2435188  36.2068238  23.5847090
  52.3651099  35.2784884  23.7837977  51.9537230  36.2206924  22.6725405
  46.2413593  42.0026551  34.0996448  45.4995329  42.1509186  34.6861078
  45.9206337  42.2634816  33.2363197  46.6870206  49.8891979  26.1306843
  47.5128226  49.5895751  25.7505486  46.3364258  49.1199602  26.5796631
  44.8878811  47.8078306  27.0895776  44.0510720  47.3800480  26.9079777
  44.8602457  48.0010749  28.0266567  51.7276267  37.7200236  37.7937022
  51.7764423  38.5962358  37.4114792  52.2698781  37.1777629  37.2208665
  51.2165246  47.7922371  21.6762977  51.3653367  48.4757835  21.0229650
  52.0231690  47.7727461  22.1912433  53.9575556  38.4731608  34.5483381
  53.0878865  38.7665174  34.2765969  54.1935036  39.0572053  35.2690645
  48.9717879  43.8187549  22.6824046  48.7263921  42.9149879  22.8804256
  49.1413794  43.8204699  21.7403524  48.2413527  39.5515906  20.1810207
  47.5482772  39.6260261  19.5250243  47.9965279  38.7876250  20.7031724
  53.2850368  39.5481291  16.4245662  52.3781823  39.2514403  16.5008376
  53.5626349  39.2511109  15.5579948  44.2028308  40.8687654  26.8744708
  43.8831092  40.0152962  26.5819082  43.6561736  41.0836232  27.6302676
  47.9808216  43.5850095  30.5914215  48.1994225  44.5167203  30.6102249
  48.3933989  43.2258069  31.3769019  52.8536081  39.1583301  39.9816964
  52.7532808  40.1077658  39.9129055  52.6357623  38.8301540  39.1093034
  52.0549152  36.4068226  16.5657641  52.9168316  36.7323124  16.8253458
  52.2399496  35.6199722  16.0530707  44.0716568  44.4890565  28.8437830
  43.3780039  44.0744518  28.3307784  44.8189559  44.5311102  28.2471249
  52.7167351  42.5880440  38.7982025  52.2334433  43.3880800  39.0045914
  52.8028290  42.5988384  37.8449469  45.9853311  44.4208819  26.7203845
  45.9623999  44.5196506  25.7685728  46.2953947  45.2673970  27.0421011
  48.6440688  46.4784974  30.8350459  49.5983942  46.4468917  30.7680391
  48.4453212  46.0175598  31.6500685  49.2340071  45.0486090  33.4021257
  50.0532960  45.5430169  33.4256094  49.5076878  44.1318058  33.3738824
  46.9990917  52.0204594  27.8520657  46.8645385  51.2604995  27.2858655
  46.5822980  52.7445494  27.3849446  44.4874985  39.3824224  34.1013454
  45.1333848  38.8723178  34.5900679  44.2792136  40.1192906  34.6756879
  53.0078595  33.6464269  19.8537350  52.9957265  34.5906109  20.0105621
  53.9002017  33.4634414  19.5596811  48.8272476  36.5291841  38.1988468
  49.6903937  36.1728646  38.4091793  48.2537886  36.1905736  38.8863872
  27.7453836   2.2670589  14.6792053  27.9850434   2.8989113  15.3571072
  26.9023032   1.9158629  14.9657413  28.4772535  -0.7347802  14.7884406
  28.3604920   0.2097630  14.6863097  27.6564982  -1.0374240  15.1770206
  39.6609867   6.3134889  11.6554591  39.0974732   6.2224826  10.8870879
  39.5462262   5.4934794  12.1357084  44.2842834   5.6134265  21.6243906
  44.2731475   5.2187063  20.7524410  44.4463474   4.8800337  22.2177677
  37.2074299   7.8086081  14.4938812  37.9995591   7.4676906  14.0785111
  37.4470949   7.9181056  15.4140965  39.1665053   7.0694994   7.3656191
  39.9395929   6.5223981   7.2269067  39.5190452   7.9339244   7.5770652
  41.0050095   8.3971376  20.5723090  40.7139961   9.3017007  20.4569756
  41.6407080   8.4387904  21.2867160  41.9306302   5.7748225  17.1624450
  42.5269875   5.5504247  16.4481413  41.9881274   5.0332970  17.7649898
  45.9639981   8.0832792  17.5672884  45.6640704   8.9857831  17.4588691
  45.6191040   7.8164975  18.4194037  39.4152462   4.5346589  13.6009588
  38.4902958   4.4022803  13.8087280  39.6636875   5.3140808  14.0979531
  36.7761273   4.1779862  14.4353377  36.9053654   4.4314341  15.3492789
  36.0958724   4.7707570  14.1158032  40.9460760  14.8477112  10.5343851
  40.8684790  15.7984937  10.6132332  40.3422404  14.5022985  11.1918778
  41.6924362   4.8290431  22.7523185  42.4339047   5.3675475  22.4758009
  40.9861348   5.4556720  22.9094737  47.1679702   6.9719572  21.3495347
  47.5763058   6.5301982  20.6049979  46.4456964   6.3972199  21.6029540
  47.4908517   7.5320762  15.1047636  46.8617379   7.6966476  14.4023704
  47.1034179   7.9462372  15.8758600  43.0436479   7.2695170  12.3697721
  43.5074824   7.5482873  11.5802343  42.7793277   6.3678615  12.1870811
  39.9360560   6.8166652  15.3077484  40.5061917   7.2453920  14.6694969
  40.5268671   6.5349237  16.0061670  35.7230699   1.6501875  14.4804419
  34.9329753   1.9059404  14.0044530  36.2141946   2.4650213  14.5856460
  49.7394508   8.9907115  17.2309700  50.5611952   8.5887302  16.9492382
  49.7356911   8.8875349  18.1825816  43.5051112   8.5391158  19.3870411
  43.5695544   9.0011565  20.2228583  42.7962035   7.9088523  19.5152721
  34.0068402   1.9032366  16.9119410  34.2576440   2.7879376  17.1776986
  34.5427950   1.7236967  16.1394502  43.2199129  10.2059265   9.2549391
  43.0844804  11.0510801   9.6834239  43.7608942  10.4078543   8.4915325
  36.6728527   7.7234703   9.8277316  37.1853047   8.5177954   9.9782881
  37.3251239   7.0260994   9.7610918  38.4823411  10.8400460  11.9100069
  38.6590040  11.7618424  11.7221053  39.2780245  10.5258879  12.3394449
  44.8467606  10.8282832  23.3849733  44.4031460  10.0419210  23.0670638
  45.5084819  11.0161982  22.7193624  39.6054727  12.3578633  17.9110412
  40.1562152  12.2295697  17.1387406  38.7666203  12.6573522  17.5605305
  46.9448844  11.1085632  21.4131134  46.9267319  11.9294513  20.9211404
  47.8668764  10.9839707  21.6381276  43.4021898   8.6229761  22.2554643
  43.9350235   7.8618049  22.0253951  42.8735979   8.3303413  22.9978797
  34.6377443   6.0523358  10.6036887  35.4752665   6.4620366  10.3870594
  34.8155711   5.1122800  10.5737081  44.7674611   7.7515754   9.7673455
  44.2395972   7.0168513   9.4546692  44.2662113   8.5290430   9.5213423
  47.7667651  11.1191645  11.9973404  48.0590625  11.6796702  11.2785769
  48.2766271  11.4120206  12.7526563  34.6603615   3.3914073  11.2747620
  34.4628014   2.7983434  10.5498687  34.1050279   3.0866283  11.9923559
  42.7301276  11.8971996  13.0866857  42.6877455  12.1232842  12.1575389
  43.6463975  11.6635371  13.2352658  51.9334026   7.5551027  15.7008087
  52.3670533   7.4626316  16.5491141  52.6465607   7.5308527  15.0628103
  40.8467077   8.7735025  12.8828820  41.6407675   8.2785345  12.6811395
  40.1358769   8.2452888  12.5196525  45.6661921  11.1553121  17.2341187
  45.7198944  11.7244057  18.0018903  44.7976703  11.3255006  16.8695224
  37.1549840   2.9178107   8.9588572  36.2247428   2.8562562   9.1758534
  37.2507312   2.3954060   8.1625214  47.8564685   7.7481470  23.8081853
  47.7050191   7.5192022  22.8911936  47.8469364   8.7052071  23.8213198
  44.6250021   5.3213383  18.7928119  45.5542081   5.4724542  18.6197086
  44.2041051   5.4097403  17.9376766  43.4238353   9.3464047  16.5626657
  43.2849438   8.9782831  17.4352595  42.6352949   9.8611687  16.3910615
  44.0186505  14.4473144   7.9052193  44.1938260  13.9761187   8.7197816
  43.3319293  15.0738910   8.1333454  44.9743568   8.7245650  13.9515494
  44.6393401   8.6846420  14.8473144  44.4747514   8.0590366  13.4785905
  38.9487812   4.1313280  19.4768076  38.8107610   3.3993519  20.0779615
  39.8592735   4.0422180  19.1952263  49.5656891  10.7800592  21.8858334
  49.5069437  10.0959813  21.2188918  49.9676410  11.5219582  21.4338960
  38.5847590  17.5962506  14.6792053  38.8244188  18.2281030  15.3571072
  37.7416787  17.2450546  14.9657413  49.5674299   8.7440176  20.1172314
  48.6801077   8.4066098  20.2398713  50.1372850   8.0123208  20.3541080
  31.2203446   5.0764268  13.4415366  31.9074485   4.7625998  12.8536381
  31.0651574   5.9805633  13.1682617  43.0975452  13.4041629  17.0833557
  43.0245623  14.2096600  17.5952862  42.6552845  13.6033595  16.2581579
  42.8865232  12.6413399  10.5936379  42.1032753  13.1835079  10.6874603
  43.5857977  13.1587378  10.9930620  45.5574135  13.3028463  19.2391716
  46.2702108  13.9375928  19.1667618  45.0664164  13.3992329  18.4231718
  40.6086049  11.0522906  20.0597287  41.3095508  11.6859389  20.2126681
  40.1381164  11.3937638  19.2992926  45.3694509  13.6427207  11.9878008
  45.5516903  12.8248863  12.4505760  46.1927495  13.8594899  11.5502898
  45.7036674  12.5695392   9.2493056  46.2324441  12.0587847   8.6363218
  45.9664894  12.2537922  10.1138589  36.2053767  10.5859261  16.9928390
  36.7907204   9.8402949  17.1256294  36.0078605  10.8963218  17.8765053
  39.0592422  13.6210509  12.0090832  38.3902798  14.1056636  11.5254872
  38.9205292  13.8679729  12.9234210  30.7971422   3.1564862  15.7132833
  30.8355521   2.6228452  16.5069951  30.2911715   2.6300067  15.0943810
  43.1997691  15.6554252  18.6073490  43.7515999  15.8185874  19.3722576
  43.5403884  16.2458690  17.9353515  48.0508565  10.4815510  24.4622145
  48.5948469  11.0945468  23.9677100  47.4695410  11.0395088  24.9789158
  46.3366078  13.6036228  15.5937172  46.2117218  12.8025968  15.0848118
  46.9945169  14.0982421  15.1051142  48.4000986  11.4045248  17.2216723
  47.4531322  11.2850599  17.1495049  48.7483760  10.5167746  17.3042984
  45.4047420  11.1997964  13.4221075  45.2572382  10.2714671  13.6028645
  46.2300913  11.2218055  12.9378150  49.0081542  12.0226523  14.5085948
  49.9328089  11.8169384  14.3710399  48.8396845  11.7742924  15.4175289
  34.6153818   4.5526859  17.9311598  34.0707286   5.3286667  18.0631872
  35.4933168   4.8997664  17.7730719  35.4019840   3.6796756  20.8241755
  34.6601576   3.8279391  21.4106385  35.0812584   3.9405021  19.9608504
  43.3463502  13.2212734  20.6222145  43.6550629  12.9761881  21.4944844
  44.1438984  13.4259372  20.1341015  43.3684114  15.3750643  12.8527521
  42.9289104  14.8827022  13.5460378  44.1192231  14.8323611  12.6119596
  35.8476453  11.5662184  12.8552149  36.6734473  11.2665956  12.4750793
  35.4970505  10.7969807  13.3041938  40.8157986  10.9188653  14.9249823
  40.1937996  10.2559358  14.6252051  41.4862853  10.9449784  14.2423471
  34.0485058   9.4848511  13.8141083  33.2116967   9.0570685  13.6325084
  34.0208704   9.6780954  14.7511874  51.3737360   9.9411564  23.7983466
  50.5832903   9.9235703  23.2587965  51.1370714  10.4799857  24.5532503
  40.3771493   9.4692576   8.4008283  40.5259614  10.1528040   7.7474956
  41.1837937   9.4497666   8.9157739  52.9953431   9.2100972  21.3558216
  52.7038240   9.5730952  22.1921677  52.3825563   8.4967980  21.1771548
  38.1324126   5.4957754   9.4069352  37.8870168   4.5920084   9.6049562
  38.3020041   5.4974904   8.4648830  43.8766899  11.9640706   5.8720031
  43.3040866  12.5830893   5.4190503  44.4499692  12.5140068   6.4059953
  44.1452390   7.3519265  24.6736740  45.0655399   7.5297864  24.8676787
  44.1101973   6.4075311  24.5216440  33.3634555   2.5457859  13.5990015
  33.0437339   1.6923167  13.3064389  32.8167983   2.7606437  14.3547982
  37.1414462   5.2620300  17.3159521  37.3600472   6.1937408  17.3347555
  37.5540236   4.9028274  18.1014325  33.2322815   6.1660770  15.5683137
  32.5386286   5.7514723  15.0553091  33.9795806   6.2081307  14.9716555
  41.8773598   4.2650644  25.5227332  41.3940679   5.0651005  25.7291221
  41.9634537   4.2758589  24.5694776  35.1459557   6.0979024  13.4449151
  35.1230245   6.1966711  12.4931035  35.4560194   6.9444175  13.7666318
  37.8046935   8.1555179  17.5595766  38.7590189   8.1239121  17.4925697
  37.6059459   7.6945803  18.3745992  38.3946317   6.7256295  20.1266564
  39.2139206   7.2200374  20.1501401  38.6683125   5.8088263  20.0984131
  36.1597164  13.6974799  14.5765964  36.0251632  12.9375200  14.0103962
  35.7429226  14.4215699  14.1094753  39.3166290  14.5944116  14.7884406
  39.1998674  15.5389548  14.6863097  38.4958736  14.2917677  15.1770206
  46.1734624   8.1275277  26.3250901  47.0425783   8.3015929  25.9637536
  45.6941375   8.9469693  26.2026630  40.3420804  15.2472378  18.0040335
  41.2448051  15.2795988  18.3206830  40.1158174  14.3172829  18.0186671
  42.0974406  14.0003364  14.6650413  41.1470037  14.0005226  14.5514786
  42.4006892  13.2536099  14.1486448  50.5003621  21.6426807  11.6554591
  49.9368487  21.5516744  10.8870879  50.3856017  20.8226711  12.1357084
  48.0468053  23.1377999  14.4938812  48.8389345  22.7968823  14.0785111
  48.2864704  23.2472974  15.4140965  50.0058807  22.3986912   7.3656191
  50.7789683  21.8515899   7.2269067  50.3584206  23.2631161   7.5770652
  51.8443850  23.7263294  20.5723090  51.5533716  24.6308925  20.4569756
  52.4800834  23.7679822  21.2867160  52.7700057  21.1040143  17.1624450
  53.3663629  20.8796165  16.4481413  52.8275028  20.3624888  17.7649898
  50.2546216  19.8638506  13.6009588  49.3296713  19.7314721  13.8087280
  50.5030630  20.6432726  14.0979531  47.6155028  19.5071780  14.4353377
  47.7447409  19.7606259  15.3492789  46.9352479  20.0999488  14.1158032
  51.7854515  30.1769030  10.5343851  51.7078545  31.1276855  10.6132332
  51.1816158  29.8314902  11.1918778  54.2771745  17.3496895  23.1905218
  53.5005079  17.9090816  23.1808083  54.9162308  17.8353678  23.7120088
  52.5318117  20.1582349  22.7523185  53.2732801  20.6967393  22.4758009
  51.8255102  20.7848638  22.9094737  53.8830233  22.5987088  12.3697721
  54.3468579  22.8774791  11.5802343  53.6187031  21.6970533  12.1870811
  50.7754314  22.1458570  15.3077484  51.3455671  22.5745838  14.6694969
  51.3662426  21.8641154  16.0061670  52.8199119  18.7210240   9.1787286
  53.5223162  19.1731284   9.6461212  52.4879748  18.0794059   9.8067179
  51.2679481  17.3121997  23.5538495  50.6378141  17.9938278  23.7873892
  51.1615569  17.2005079  22.6091634  46.5624453  16.9793793  14.4804419
  45.7723507  17.2351322  14.0044530  47.0535700  17.7942131  14.5856460
  48.5139198  17.3438372  11.4387896  47.7170362  17.4557066  11.9571392
  48.2864791  17.6825024  10.5728787  54.3444866  23.8683075  19.3870411
  54.4089299  24.3303483  20.2228583  53.6355790  23.2380440  19.5152721
  44.8462156  17.2324283  16.9119410  45.0970194  18.1171293  17.1776986
  45.3821704  17.0528885  16.1394502  54.0592884  25.5351183   9.2549391
  53.9238559  26.3802719   9.6834239  54.6002696  25.7370461   8.4915325
  50.5460223  11.6142763  25.9163746  50.1527169  11.0608961  26.5911391
  51.3626364  11.9253341  26.3070264  47.5122281  23.0526621   9.8277316
  48.0246802  23.8469871   9.9782881  48.1644994  22.3552911   9.7610918
  49.3217166  26.1692377  11.9100069  49.4983794  27.0910342  11.7221053
  50.1173999  25.8550796  12.3394449  53.4628184  13.0300642  23.5084003
  54.2037898  13.6307795  23.4288465  53.6946107  12.2878280  22.9502045
  48.6069522  18.2157009  21.7862233  48.4923038  17.3142266  22.0869332
  47.7514040  18.4620706  21.4347049  50.4448481  27.6870551  17.9110412
  50.9955906  27.5587614  17.1387406  49.6059957  27.9865440  17.5605305
  54.2415652  23.9521679  22.2554643  54.7743989  23.1909967  22.0253951
  53.7129733  23.6595331  22.9978797  45.4771198  21.3815275  10.6036887
  46.3146420  21.7912284  10.3870594  45.6549466  20.4414717  10.5737081
  52.7324774  11.5125130  14.7563700  53.5977770  11.3167938  14.3969589
  52.8002282  11.2835481  15.6833056  50.3387093  13.7427338  12.1280066
  50.9130845  13.5202519  11.3953259  50.9258075  13.8116032  12.8808668
  45.4997369  18.7205991  11.2747620  45.3021769  18.1275351  10.5498687
  44.9444033  18.4158201  11.9923559  53.4794093  18.6129097  13.3942213
  53.5342702  17.6602933  13.3184690  52.6685295  18.7688536  13.8783512
  51.4186453  17.2306157  11.1532592  50.6054318  17.5300327  11.5597784
  51.9145447  16.8361846  11.8707074  53.5695031  27.2263914  13.0866857
  53.5271209  27.4524760  12.1575389  54.4857729  26.9927288  13.2352658
  50.9100527  14.8024512  16.7693827  51.5499907  14.6613271  16.0716790
  50.0778058  14.5159026  16.3932429  51.6860831  24.1026943  12.8828820
  52.4801430  23.6077263  12.6811395  50.9752524  23.5744806  12.5196525
  47.9943595  18.2470025   8.9588572  47.0641183  18.1854480   9.1758534
  48.0901067  17.7245977   8.1625214  47.9129144  14.7724837  11.5466814
  48.1735961  15.6870171  11.4375974  48.7346316  14.3049280  11.6963427
  49.3854069  16.1862595  18.7165638  50.0577123  15.9779957  18.0678287
  48.5583856  15.9884681  18.2770871  54.2632107  24.6755965  16.5626657
  54.1243193  24.3074749  17.4352595  53.4746704  25.1903604  16.3910615
  49.7881566  19.4605197  19.4768076  49.6501364  18.7285436  20.0779615
  50.6986490  19.3714098  19.1952263  52.4163867  19.1725157  18.9651755
  53.1263486  18.5318349  18.9238374  52.3733175  19.4238052  19.8877936
  51.1292801  16.1590375  20.7847395  50.5930158  15.7081113  21.4368991
  50.5409509  16.2936284  20.0417859  49.4241345  32.9254424  14.6792053
  49.6637943  33.5572948  15.3571072  48.5810541  32.5742464  14.9657413
  42.0597200  20.4056186  13.4415366  42.7468240  20.0917916  12.8536381
  41.9045329  21.3097550  13.1682617  46.8631922  15.2946382  17.8700389
  46.7790111  14.6872052  17.1350799  46.0414629  15.7855401  17.8709886
  53.9369206  28.7333546  17.0833557  53.8639378  29.5388518  17.5952862
  53.4946600  28.9325512  16.2581579  53.7258986  27.9705316  10.5936379
  52.9426508  28.5126997  10.6874603  54.4251731  28.4879296  10.9930620
  53.6190605  15.9217329  12.9642269  53.2488392  15.3688369  13.6523174
  54.1149697  15.3175462  12.4117269  51.4479803  26.3814824  20.0597287
  52.1489263  27.0151307  20.2126681  50.9774918  26.7229555  19.2992926
  47.0447522  25.9151179  16.9928390  47.6300958  25.1694867  17.1256294
  46.8472360  26.2255136  17.8765053  49.8986177  28.9502426  12.0090832
  49.2296552  29.4348554  11.5254872  49.7599046  29.1971647  12.9234210
  41.6365176  18.4856779  15.7132833  41.6749276  17.9520370  16.5069951
  41.1305469  17.9591985  15.0943810  54.0391445  30.9846170  18.6073490
  54.5909753  31.1477791  19.3722576  54.3797639  31.5750608  17.9353515
  49.0155939  13.3321320  19.2095375  49.0797265  14.1936151  18.7972773
  48.9523059  12.7195321  18.4767734  48.4908211  15.4044452  22.8568409
  49.1180250  15.0221530  23.4705934  47.6336130  15.1858654  23.2224102
  45.2673754  17.2120881   8.7886764  45.5627195  16.3031560   8.7353818
  44.3661790  17.1908621   8.4667766  48.7968001  15.2876878  14.7714313
  48.0754587  15.9012846  14.6321786  49.5861257  15.8234643  14.6930959
  51.5994314  12.6231304  21.0454964  52.1228716  12.8693601  21.8081274
  51.3806648  13.4551339  20.6258102  46.9961595  14.8934979   8.9126089
  46.6674302  14.0132358   8.7301195  47.3500966  14.8382648   9.8002478
  50.1103419  15.1807949   9.2801567  50.4499491  15.7093870   8.5580175
  50.5575539  15.5188355  10.0560133  52.8046859  13.5645000  18.7304635
  52.4643680  12.7652813  19.1325315  52.0985866  13.8646710  18.1581468
  53.4563331  10.6494312  17.1831958  54.2789401  10.1754790  17.0610848
  53.7001395  11.4284796  17.6830644  50.9801910  17.3413433  14.9923937
  50.8346491  17.6553736  15.8848218  50.5027114  17.9598333  14.4394835
  52.8398293  14.3315981  15.0404826  52.8259862  13.4357074  14.7037124
  53.5570721  14.3386644  15.6743112  54.6924424  14.7653321  17.0857954
  54.4342201  15.6870391  17.0842284  54.1609464  14.3683755  17.7758418
  45.4547572  19.8818777  17.9311598  44.9101040  20.6578585  18.0631872
  46.3326922  20.2289581  17.7730719  46.2413594  19.0088673  20.8241755
  45.4995330  19.1571309  21.4106385  45.9206338  19.2696939  19.9608504
  54.1857257  28.5504651  20.6222145  54.4944383  28.3053798  21.4944844
  54.9832739  28.7551290  20.1341015  54.2077869  30.7042561  12.8527521
  53.7682859  30.2118940  13.5460378  54.9585986  30.1615529  12.6119596
  46.6870208  26.8954102  12.8552149  47.5128228  26.5957874  12.4750793
  46.3364260  26.1261724  13.3041938  51.6551741  26.2480570  14.9249823
  51.0331750  25.5851275  14.6252051  52.3256608  26.2741702  14.2423471
  44.8878813  24.8140428  13.8141083  44.0510721  24.3862603  13.6325084
  44.8602458  25.0072872  14.7511874  51.7276268  14.7262358  24.5182329
  51.7764424  15.6024481  24.1360099  52.2698783  14.1839751  23.9453972
  51.2165248  24.7984494   8.4008283  51.3653368  25.4819958   7.7474956
  52.0231691  24.7789584   8.9157739  53.9575557  15.4793731  21.2728688
  53.0878866  15.7727297  21.0011276  54.1935037  16.0634176  21.9935951
  48.9717881  20.8249671   9.4069352  48.7263923  19.9212001   9.6049562
  49.1413795  20.8266822   8.4648830  48.2413528  16.5578029   6.9055514
  47.5482773  16.6322384   6.2495550  47.9965280  15.7938372   7.4277031
  44.2028309  17.8749777  13.5990015  43.8831094  17.0215085  13.3064389
  43.6561738  18.0898355  14.3547982  47.9808217  20.5912218  17.3159521
  48.1994227  21.5229325  17.3347555  48.3933991  20.2320192  18.1014325
  52.8536082  16.1645423  26.7062270  52.7532809  17.1139780  26.6374362
  52.6357624  15.8363662  25.8338341  44.0716569  21.4952688  15.5683137
  43.3780041  21.0806641  15.0553091  44.8189560  21.5373225  14.9716555
  52.7167352  19.5942562  25.5227332  52.2334434  20.3942922  25.7291221
  52.8028291  19.6050507  24.5694776  45.9853312  21.4270942  13.4449151
  45.9624000  21.5258629  12.4931035  46.2953948  22.2736093  13.7666318
  48.6440690  23.4847097  17.5595766  49.5983943  23.4531039  17.4925697
  48.4453213  23.0237721  18.3745992  49.2340072  22.0548213  20.1266564
  50.0532961  22.5492292  20.1501401  49.5076880  21.1380181  20.0984131
  46.9990919  29.0266716  14.5765964  46.8645386  28.2667117  14.0103962
  46.5822981  29.7507616  14.1094753  50.1560044  29.9236033  14.7884406
  50.0392429  30.8681466  14.6863097  49.3352491  29.6209595  15.1770206
  44.4874986  16.3886347  20.8258761  45.1333850  15.8785301  21.3145986
  44.2792137  17.1255028  21.4002186  51.1814559  30.5764295  18.0040335
  52.0841805  30.6087906  18.3206830  50.9551929  29.6464746  18.0186671
  52.9368161  29.3295282  14.6650413  51.9863792  29.3297143  14.5514786
  53.2400647  28.5828016  14.1486448  48.8272477  13.5353964  24.9233775
  49.6903939  13.1790769  25.1337099  48.2537888  13.1967859  25.6109179
  52.8990955  35.7348104  13.4415366  53.5861994  35.4209834  12.8536381
  52.7439083  36.6389468  13.1682617  52.4758931  33.8148697  15.7132833
  52.5143030  33.2812288  16.5069951  51.9699224  33.2883902  15.0943810
   3.6331726  20.6637782  40.1304055   2.8795435  20.0945181  39.9748060
   3.7679267  20.6300447  41.0774690   4.0438141  20.8213392  42.8624300
   4.7741530  20.5598681  43.4232003   3.4345087  20.0842114  42.9026368
   2.1253438  18.9621255  43.4598751   1.3986602  18.8277220  42.8515243
   1.7100725  19.2698084  44.2655469   2.0502306  18.4899308  39.5875604
   1.4901864  18.5592497  40.3607166   1.4445809  18.3140293  38.8675100
   3.6358325  35.1655822  42.2805559   4.2736735  35.0462569  41.5768900
   3.5179167  36.1136666  42.3393512   1.8834405  40.6389694  33.5178440
   1.2322385  41.2243775  33.1312454   2.6778768  41.1695889  33.5773477
   3.1899593  32.8907276  39.3558767   3.9762682  32.4726699  39.0049185
   3.4538297  33.7953368  39.5240416   3.3609670  38.3280126  34.0547424
   2.7255503  38.4014753  34.7668329   3.0307077  38.9173725  33.3766504
   8.5908020  32.8282509  40.2591746   9.3233192  32.2581726  40.4929575
   7.8347376  32.4404109  40.6998252   6.1133441  26.5404083  44.7186355
   5.7816765  27.4099494  44.4947570   5.5179054  26.2240367  45.3980385
   2.6064960  38.7416629  44.1182267   2.3065683  39.6441668  44.0098075
   2.2616020  38.4748812  44.9703420   6.0062104  31.2599169  41.7979705
   5.0978981  31.1914578  41.5038466   5.9549700  31.7371114  42.6261530
   7.8723750  29.4615608  43.5757579   7.2298130  29.7548141  42.9297373
   7.3678679  29.3468528  44.3810775   5.5263914  33.2078781  34.2643438
   6.4381770  33.4406168  34.0891135   5.0173561  33.7915825  33.7018516
   4.1333496  38.1904599  41.6557019   3.5042359  38.3550313  40.9533087
   3.7459158  38.6046209  42.4267983   8.0122728  39.1259037  39.0101383
   7.3273766  39.5057939  38.4598416   8.0966577  39.7354364  39.7433331
   3.3135197  30.2280384  46.9319461   3.0696129  30.9822444  46.3953737
   3.5895127  30.6065731  47.7666708   5.2673660  36.7718996  45.6096727
   5.4790555  37.4150756  44.9331108   5.2203408  35.9381313  45.1418657
   2.8699889  29.3836817  42.5133299   2.0084368  29.6818070  42.8050036
   2.8962323  29.6007216  41.5814331   6.3819488  39.6490952  43.7819084
   7.2036931  39.2471139  43.5001766   6.3781891  39.5459186  44.7335200
  14.4725481  35.9929700  40.1304055  13.7189189  35.4237098  39.9748060
  14.6073022  35.9592365  41.0774690   3.2116572  24.3873664  44.3357668
   2.8680842  25.2775306  44.2596779   3.5795535  24.1975322  43.4727253
   3.1766855  34.3782275  32.8430103   2.6613478  35.1486880  33.0818491
   2.9044164  33.7047412  33.4663165   2.2913113  26.7578319  42.3006901
   1.7877908  26.7208455  41.4874707   2.5843720  27.6671062  42.3603558
   8.1501129  37.1314630  34.7783277   7.3730572  36.7925790  34.3338439
   8.8292610  37.1367253  34.1038242   2.9653158  32.2509367  34.6689885
   2.6603294  32.5655517  35.5200028   3.9183600  32.3290787  34.7117218
   1.4099590  38.4099591  36.3182838   0.8820952  37.6752350  36.0056076
   0.9087093  39.1874267  36.0722807   6.3892436  36.6048611  41.4349885
   5.7316111  37.2947873  41.5230013   7.1932835  36.9945043  41.7783871
   5.1997895  34.9592984  39.4853827   5.7129777  35.5922976  39.9875536
   5.8499119  34.3594180  39.1197187   2.4620269  44.9377308  32.2414498
   1.7881968  45.2409005  32.8499456   2.8486091  45.7406389  31.8919955
   1.6778726  32.4342440  41.7312167   0.7601287  32.6557387  41.5733855
   2.0938869  32.5088750  40.8723874   2.4613774  33.8333855  36.8614847
   3.2085592  34.3455252  36.5521969   2.7305363  33.5117908  37.7219241
   5.9659691  39.9398985  37.6132969   5.5122018  39.0989895  37.6698160
   5.3353658  40.5760384  37.9507749   4.9092611  30.8690971  38.8433637
   4.1715367  30.3568358  39.1743879   5.1619384  30.4291353  38.0316914
   4.4092630  41.7775482  38.5482787   4.7015605  42.3380539  37.8295153
   4.9191251  42.0704043  39.3035946   5.0104238  23.6467223  39.4375406
   5.3163115  22.7864587  39.1501321   5.7356843  24.2384844  39.2374400
   2.8191889  33.0239901  46.5356870   3.1741277  33.2511374  47.3951335
   3.4664021  33.3558278  45.9134125   8.5489626  36.1458337  37.2406199
   8.4107525  36.3359933  36.3127388   8.1925845  36.9077719  37.6974250
   8.5759006  38.2134864  42.2517470   9.0095513  38.1210153  43.1000524
   9.2890587  38.1892364  41.6137486   9.4374555  38.2558564  44.7850356
   9.6310446  39.1604375  45.0309631   9.3375174  37.7965983  45.6188941
   1.2675001  35.9797220  45.3437503   2.1967061  36.1308379  45.1706470
   0.8466031  36.0681241  44.4886149   1.6168547  39.3829487  40.5024878
   1.2818380  39.3430257  41.3982528   1.1172493  38.7174203  40.0295288
   4.5527739  36.7285521  30.7761938   3.9356910  36.0032349  30.6794990
   4.0844228  37.4894882  30.4329012   6.2099278  39.4024014  46.6681698
   5.3226057  39.0649935  46.7908097   6.7797829  38.6707045  46.9050463
   2.8386861  29.1091865  39.7879968   3.3355561  28.3561828  39.4681038
   2.0673843  29.1456182  39.2223177  10.6916619  34.8132231  41.4298259
  10.6806495  35.6956946  41.0592193   9.8233998  34.4603782  41.2352797
   3.9216642  37.8663553  37.3618391   2.9872921  37.9865015  37.1923096
   4.0993310  36.9636019  37.0978401   7.3089193  33.7080872  37.8968426
   7.7749645  34.5408863  37.8228728   7.7596694  33.2425853  38.6013684
   5.3765424  40.0524693  34.8954578   5.6525268  39.9381288  35.8048452
   4.5069923  39.6542178  34.8566751   5.2805856  26.0761459  41.9359327
   4.3668936  26.3065686  42.1041534   5.7098957  26.1599903  42.7873359
   5.0512314  34.2651351  44.4359221   4.3983765  34.5127258  43.7811674
   5.4292694  33.4515489  44.1021698   2.0119488  44.3011044  38.5387391
   2.1941883  43.4832700  39.0015143   2.8352474  44.5178736  38.1012281
   2.3461654  43.2279229  35.8002440   2.8749420  42.7171684  35.1872602
   2.6089873  42.9121759  36.6647973   2.9791058  44.2620065  42.1446556
   2.8542197  43.4609805  41.6357502   3.6370149  44.7566258  41.6560526
   5.0425966  42.0629085  43.7726106   4.0956302  41.9434436  43.7004433
   5.3908739  41.1751583  43.8552368   2.0472399  41.8581801  39.9730458
   1.8997362  40.9298509  40.1538028   2.8725893  41.8801892  39.4887534
   5.6506521  42.6810360  41.0595331   6.5753069  42.4753221  40.9219782
   5.4821825  42.4326761  41.9684673   2.0433914  29.7119639  34.9662576
   2.2597528  30.5944277  34.6651404   1.5627981  29.3205852  34.2368218
   5.4401837  43.1996027  36.4157423   5.6138715  42.6342450  35.6631275
   5.9330729  43.9996922  36.2336913   0.9157604  26.2277191  39.9968500
   0.9379301  26.2916524  39.0420479   1.3325663  25.3881699  40.1909006
  11.2941229  35.9632450  38.0347722  11.7372375  35.2139776  37.6366846
  10.4167739  35.9542587  37.6521454   6.4277010  42.5162792  33.5154321
   7.1227914  43.1369484  33.7341636   6.7700160  41.6658143  33.7906699
   8.3268433  39.9662497  35.0441652   8.8519757  40.3049770  34.3190972
   8.2390786  39.0309513  34.8604786   8.1360214  37.4487867  47.6625578
   8.1858219  37.2837875  48.6041101   8.0274137  36.5815126  47.2723459
   5.4263976  33.4318795  48.9784885   6.3273839  33.2925260  48.6868883
   5.5011951  33.5973250  49.9183062   9.6378411  39.8684809  47.9067600
   9.3463219  40.2314789  48.7431061   9.0250542  39.1551817  47.7280932
  10.8374093  37.4337689  40.4270170  11.6720985  37.8727493  40.5907730
  10.9733222  36.9576342  39.6078416   7.8865599  34.9917423  46.3747658
   8.3619721  35.1845070  45.5666509   6.9631165  35.0476609  46.1291041
   2.4645816  27.0265267  45.3403492   2.9827760  27.7626294  45.0149980
   2.1100948  27.3329260  46.1750251   2.7158410  23.4465550  40.8604388
   2.9960164  22.7788739  41.4864815   3.5009017  23.6394645  40.3479052
   6.5867268  31.8683184  44.6075963   7.5384691  31.9681281  44.6288187
   6.4170719  31.0761452  45.1174048   4.6081648  28.9538767  44.7935364
   4.0131580  29.2343779  44.0981853   4.3231344  29.4432668  45.5652105
   3.7389138  42.9061694  33.5537997   4.6719811  42.8407255  33.7570872
   3.6512351  43.7417960  33.0952529   6.3677155  42.2227564  30.5141944
   6.2890786  41.8887428  31.4077702   7.1886822  42.7149332  30.5133417
   9.0655346  35.0889303  43.7218263   9.0331666  34.1505304  43.9077947
   9.6755970  35.1673340  42.9884088   0.9038677  33.9585356  29.7645467
   1.8497782  33.8291564  29.8333885   0.5252922  33.2200018  30.2414895
   9.2149834  31.8800347  43.7676546   8.6988883  31.0958803  43.5806475
  10.0989783  31.5519063  43.9323066   6.8760561  25.6241362  39.7272359
   6.6785382  25.3156450  40.6115691   7.4860267  26.3503001  39.8570289
  14.8831896  36.1505310  42.8624300  15.6135284  35.8890598  43.4232003
  14.2738841  35.4134032  42.9026368  12.9647193  34.2913173  43.4598751
  12.2380357  34.1569138  42.8515243  12.5494480  34.5990001  44.2655469
   2.6334208  25.5050269  37.4768890   3.1865247  25.9245723  38.1358913
   2.8704294  24.5786017  37.5191846   6.0113015  27.6150794  36.9847554
   5.4311684  28.2735598  36.6025607   5.7448948  26.7928139  36.5734972
   4.4616581  27.0155852  39.1868875   4.9616360  27.1272387  38.3783194
   5.1052189  26.7116905  39.8269683   4.7937893  29.7750885  36.0403903
   3.9063748  30.0600535  35.8224097   5.2091882  29.6144648  35.1931180
   8.1452429  29.7997406  39.7558242   8.9212819  30.2893858  40.0282859
   7.4200563  30.2255460  40.2130111  10.5824988  30.5125025  40.8132183
  11.1769479  30.2720761  40.1025491  10.6551572  29.7932155  41.4405719
   3.9381107  39.5395559  30.1351923   4.6416957  39.7445562  30.7509578
   3.2143755  40.1072321  30.4001006   4.7678917  35.2905421  36.2554193
   4.7114118  35.7473972  35.4161825   5.3207259  34.5296105  36.0777036
   8.5783723  31.0795152  37.0804312   8.3220657  30.6791788  37.9112520
   7.9536591  31.7938946  36.9554451  12.8896061  33.8191226  39.5875604
  12.3295619  33.8884415  40.3607166  12.2839564  33.6432210  38.8675100
   5.8467804  39.9778089  32.1850383   6.6813408  39.5459287  32.0027858
   5.6852147  39.8060102  33.1127277   5.5013696  36.4810202  33.5506722
   5.4462500  36.3154473  32.6095166   4.8759751  37.1886235  33.7068912
   2.6261941  22.5761087  37.3837977   1.8594337  22.0219574  37.5294660
   3.0372646  22.6482956  38.2452129  14.4752079  50.4947740  42.2805559
  15.1130489  50.3754487  41.5768900  14.3572922  51.4428584  42.3393512
  11.2841785  50.4475168  42.2167084  10.9460297  50.3316232  41.3287619
  12.1531554  50.0466333  42.1968090   8.9850065  49.2163415  31.5484024
   9.2375585  48.6944936  30.7867487   8.0474624  49.0529561  31.6510708
  14.0293348  48.2199193  39.3558767  14.8156437  47.8018617  39.0049185
  14.2932052  49.1245286  39.5240416  19.4301775  48.1574427  40.2591746
  20.1626947  47.5873643  40.4929575  18.6741130  47.7696027  40.6998252
  11.0477894  50.5801668  37.4555088  10.6836102  50.0532289  38.1668010
  11.9045010  50.1900137  37.2821574  16.9527195  41.8696001  44.7186355
  16.6210520  42.7391412  44.4947570  16.3572808  41.5532285  45.3980385
  10.6883381  45.6091568  32.4516437  10.8557784  46.4771804  32.8186908
  10.4980550  45.7718850  31.5277726  16.8455858  46.5891087  41.7979705
  15.9372736  46.5206495  41.5038466  16.7943454  47.0663032  42.6261530
  10.6672602  48.0649225  33.4363104  10.5472227  48.5106276  34.2748584
   9.9725191  48.4134543  32.8776642  18.7117505  44.7907525  43.5757579
  18.0691885  45.0840059  42.9297373  18.2072433  44.6760446  44.3810775
  16.3657668  48.5370699  34.2643438  17.2775525  48.7698085  34.0891135
  15.8567315  49.1207743  33.7018516  11.0029506  47.8967933  45.2738287
  11.8490701  48.3207347  45.4172936  10.9428144  47.2401557  45.9676850
  14.1528951  45.5572302  46.9319461  13.9089883  46.3114362  46.3953737
  14.4288882  45.9357649  47.7666708  13.7093643  44.7128735  42.5133299
  12.8478122  45.0109988  42.8050036  13.7356078  44.9299133  41.5814331
   9.4624099  49.3794077  35.7296670  10.1648142  49.8315121  36.1970596
   9.1304727  48.7377896  36.3576563   5.1564178  48.0022209  37.9897280
   4.3595341  48.1140904  38.5080775   4.9289770  48.3408862  37.1238170
  25.3119235  51.3221618  40.1304055  24.5582944  50.7529016  39.9748060
  25.4466776  51.2884282  41.0774690  14.0510327  39.7165582  44.3357668
  13.7074596  40.6067224  44.2596779  14.4189289  39.5267240  43.4727253
  14.0160610  49.7074193  32.8430103  13.5007233  50.4778798  33.0818491
  13.7437918  49.0339329  33.4663165  11.6007721  44.5523894  37.9015342
  10.7449317  44.1630744  37.7220980  12.0134672  44.6315855  37.0415127
  13.1306867  42.0870237  42.3006901  12.6271663  42.0500372  41.4874707
  13.4237474  42.9962980  42.3603558   9.3749753  42.1708967  41.3073083
  10.2402750  41.9751776  40.9478973   9.4427262  41.9419319  42.2342440
  18.9894884  52.4606548  34.7783277  18.2124326  52.1217707  34.3338439
  19.6686365  52.4659171  34.1038242  13.8046913  47.5801285  34.6689885
  13.4997048  47.8947434  35.5200028  14.7577355  47.6582705  34.7117218
   6.9812072  44.4011175  38.6789450   7.5555824  44.1786356  37.9462643
   7.5683055  44.4699869  39.4318051  16.0391649  50.2884902  39.4853827
  16.5523531  50.9214894  39.9875536  16.6892873  49.6886097  39.1197187
   7.3081659  46.4315636  32.6985335   6.4718972  46.7690322  33.0194610
   7.1686429  46.2964616  31.7612472   9.2834740  41.2752424  37.4064519
   8.6299152  40.9601441  36.7821134   9.2415214  40.6528164  38.1324342
  12.5172480  47.7634357  41.7312167  11.5995042  47.9849304  41.5733855
  12.9332624  47.8380668  40.8723874  13.3007528  49.1625773  36.8614847
  14.0479347  49.6747170  36.5521969  13.5699118  48.8409826  37.7219241
  15.7486365  46.1982889  38.8433637  15.0109122  45.6860275  39.1743879
  16.0013139  45.7583271  38.0316914  15.8497992  38.9759141  39.4375406
  16.1556869  38.1156505  39.1501321  16.5750597  39.5676761  39.2374400
  10.1219072  49.2712934  39.9451597  10.1767682  48.3186771  39.8694074
   9.3110274  49.4272373  40.4292895   8.0611432  47.8889994  37.7041976
   7.2479298  48.1884165  38.1107168   8.5570426  47.4945683  38.4216458
  13.6585644  48.3531818  46.5356870  14.0135032  48.5803292  47.3951335
  14.3057775  48.6850195  45.9134125  19.3883381  51.4750254  37.2406199
  19.2501279  51.6651850  36.3127388  19.0319600  52.2369637  37.6974250
   7.5525507  45.4608349  43.3203211   8.1924886  45.3197109  42.6226174
   6.7203037  45.1742863  42.9441813  19.4152760  53.5426781  42.2517470
  19.8489267  53.4502070  43.1000524  20.1284341  53.5184282  41.6137486
   4.5554123  45.4308674  38.0976198   4.8160941  46.3454008  37.9885358
   5.3771296  44.9633117  38.2472810  11.9304621  43.4708373  47.2840683
  11.2832536  44.1698322  47.1905159  12.7005636  43.9044516  47.6516931
   7.1820040  46.2762863  29.8983242   6.3049506  46.1551664  29.5345489
   7.6577793  45.4848942  29.6462131  13.6780616  44.4383783  39.7879968
  14.1749315  43.6853745  39.4681038  12.9067597  44.4748100  39.2223177
  21.5310373  50.1424149  41.4298259  21.5200249  51.0248864  41.0592193
  20.6627753  49.7895699  41.2352797  10.2615584  46.5801166  39.5151653
   9.8913372  46.0272206  40.2032558  10.7574677  45.9759300  38.9626653
  18.1482948  49.0372790  37.8968426  18.6143400  49.8700781  37.8228728
  18.5990448  48.5717771  38.6013684  16.1199610  41.4053377  41.9359327
  15.2062690  41.6357603  42.1041534  16.5492712  41.4891821  42.7873359
  15.8906069  49.5943269  44.4359221  15.2377519  49.8419176  43.7811674
  16.2686449  48.7807407  44.1021698   5.4392980  45.9460715  41.3223696
   4.7179566  46.5596683  41.1831170   6.2286236  46.4818480  41.2440342
   3.6386575  45.5518816  35.4635473   3.3099281  44.6716195  35.2810579
   3.9925946  45.4966485  36.3511862   6.7528398  45.8391786  35.8310951
   7.0924471  46.3677707  35.1089559   7.2000519  46.1772192  36.6069517
   9.4471839  44.2228837  45.2814019   9.1068659  43.4236650  45.6834698
   8.7410845  44.5230548  44.7090852  10.0988311  41.3078149  43.7341342
  10.9214380  40.8338627  43.6120232  10.3426374  42.0868633  44.2340028
   8.7396545  44.3366408  34.0304243   9.4604908  44.7147660  33.5267960
   8.1161849  45.0555284  34.1339221  12.8827668  45.0411557  34.9662576
  13.0991283  45.9236194  34.6651404  12.4021735  44.6497770  34.2368218
   7.6226890  47.9997270  41.5433320   7.4771470  48.3137573  42.4357602
   7.1452093  48.6182170  40.9904219   9.4823272  44.9899818  41.5914210
   9.4684841  44.0940911  41.2546508  10.1995701  44.9970481  42.2252496
  11.3349403  45.4237158  43.6367337  11.0767181  46.3454229  43.6351668
  10.8034443  45.0267592  44.3267801   8.8860168  43.8714198  36.8601780
   9.0076080  42.9430844  37.0592667   8.5962211  43.8852884  35.9480095
  11.7551359  41.5569108  39.9968500  11.7773056  41.6208442  39.0420479
  12.1719418  40.7173617  40.1909006  22.1334983  51.2924368  38.0347722
  22.5766129  50.5431693  37.6366846  21.2561493  51.2834504  37.6521454
  18.9753969  52.7779785  47.6625578  19.0251974  52.6129792  48.6041101
  18.8667892  51.9107044  47.2723459  16.2657731  48.7610713  48.9784885
  17.1667594  48.6217178  48.6868883  16.3405705  48.9265168  49.9183062
  21.6767848  52.7629606  40.4270170  22.5114739  53.2019410  40.5907730
  21.8126977  52.2868259  39.6078416  18.7259354  50.3209341  46.3747658
  19.2013475  50.5136987  45.5666509  17.8024919  50.3768527  46.1291041
  13.3039570  42.3557185  45.3403492  13.8221514  43.0918212  45.0149980
  12.9494703  42.6621178  46.1750251   4.8838508  47.2161866  33.4564897
   4.1907753  47.2906221  32.8004933   4.6390260  46.4522210  33.9786414
  13.5552164  38.7757467  40.8604388  13.8353918  38.1080656  41.4864815
  14.3402771  38.9686563  40.3479052  17.4261023  47.1975101  44.6075963
  18.3778446  47.2973199  44.6288187  17.2564473  46.4053370  45.1174048
  15.4475402  44.2830684  44.7935364  14.8525334  44.5635697  44.0981853
  15.1625099  44.7724585  45.5652105  19.9049100  50.4181221  43.7218263
  19.8725421  49.4797222  43.9077947  20.5149724  50.4965258  42.9884088
  11.7432431  49.2877274  29.7645467  12.6891536  49.1583482  29.8333885
  11.3646676  48.5491936  30.2414895  20.0543589  47.2092264  43.7676546
  19.5382638  46.4250721  43.5806475  20.9383537  46.8810981  43.9323066
  17.7154316  40.9533280  39.7272359  17.5179137  40.6448368  40.6115691
  18.3254021  41.6794919  39.8570289  25.7225650  51.4797228  42.8624300
  26.4529039  51.2182516  43.4232003  25.1132596  50.7425950  42.9026368
  23.8040947  49.6205090  43.4598751  23.0774111  49.4861055  42.8515243
  23.3888234  49.9281919  44.2655469   9.9275348  47.2127250  29.7000352
   9.0206804  46.9160363  29.7763066  10.2051329  46.9157068  28.8334638
  11.5437414  41.7564140  35.8544594  10.7338143  41.4111225  36.2299840
  12.2321831  41.4471684  36.4432205  13.4727962  40.8342187  37.4768890
  14.0259001  41.2537640  38.1358913  13.7098049  39.9077935  37.5191846
   8.6974133  44.0714185  29.8412331   9.5593297  44.3969084  30.1008149
   8.8824477  43.2845681  29.3285397  16.8506770  42.9442712  36.9847554
  16.2705439  43.6027516  36.6025607  16.5842702  42.1220057  36.5734972
  15.3010336  42.3447770  39.1868875  15.8010114  42.4564304  38.3783194
  15.9445944  42.0408822  39.8269683  15.6331648  45.1042802  36.0403903
  14.7457503  45.3892453  35.8224097  16.0485637  44.9436566  35.1931180
  18.9846184  45.1289323  39.7558242  19.7606574  45.6185776  40.0282859
  18.2594318  45.5547378  40.2130111  21.4218742  45.8416943  40.8132183
  22.0163233  45.6012678  40.1025491  21.4945326  45.1224073  41.4405719
  15.6072671  50.6197338  36.2554193  15.5507873  51.0765890  35.4161825
  16.1601014  49.8588023  36.0777036  19.4177477  46.4087070  37.0804312
  19.1614411  46.0083706  37.9112520  18.7930345  47.1230864  36.9554451
  23.7289815  49.1483143  39.5875604  23.1689373  49.2176333  40.3607166
  23.1233318  48.9724128  38.8675100   9.6503576  41.3110229  33.1292040
   9.6382246  42.2552068  33.2860311  10.5426998  41.1280374  32.8351502
  13.4655696  37.9053005  37.3837977  12.6988091  37.3511492  37.5294660
  13.8766401  37.9774874  38.2452129  26.6891747  54.3051059  39.4375406
  26.9950624  53.4448422  39.1501321  27.4144352  54.8968679  39.2374400
  24.3945919  54.1049385  40.8604388  24.6747673  53.4372574  41.4864815
  25.1796526  54.2978481  40.3479052  28.5548070  56.2825198  39.7272359
  28.3572891  55.9740286  40.6115691  29.1647776  57.0086836  39.8570289
  24.3049450  53.2344923  37.3837977  23.5381846  52.6803410  37.5294660
  24.7160155  53.3066792  38.2452129   3.6358326  12.1717945  29.0050866
   4.2736736  12.0524692  28.3014206   3.5179169  13.1198789  29.0638818
   0.9267815  13.2780224  34.8998596   0.9156456  12.8833023  34.0279100
   1.0888455  12.5446297  35.4932368   1.8834407  17.6451817  20.2423747
   1.2322386  18.2305897  19.8557760   2.6778769  18.1758012  20.3018784
   3.1899594   9.8969398  26.0804074   3.9762684   9.4788822  25.7294491
   3.4538299  10.8015491  26.2485723   3.3609672  15.3342249  20.7792731
   2.7255505  15.4076875  21.4913636   3.0307078  15.9235848  20.1011810
   8.5908021   9.8344632  26.9837053   9.3233193   9.2643848  27.2174882
   7.8347377   9.4466232  27.4243558   2.6064961  15.7478752  30.8427574
   2.3065684  16.6503791  30.7343381   2.2616021  15.4810935  31.6948727
   6.0062105   8.2661292  28.5225011   5.0978982   8.1976700  28.2283772
   5.9549701   8.7433237  29.3506837   7.8723752   6.4677730  30.3002885
   7.2298132   6.7610263  29.6542680   7.3678680   6.3530651  31.1056082
   5.5263915  10.2140903  20.9888744   6.4381771  10.4468290  20.8136442
   5.0173562  10.7977948  20.4263823   3.8104683  14.6365531  34.6250037
   4.2188039  14.1947942  33.8804669   3.0881944  14.0618159  34.8784230
   4.1333497  15.1966722  28.3802326   3.5042360  15.3612436  27.6778394
   3.7459160  15.6108331  29.1513290   8.0122729  16.1321160  25.7346690
   7.3273768  16.5120061  25.1843723   8.0966579  16.7416486  26.4678637
   3.3135198   7.2342506  33.6564768   3.0696130   7.9884567  33.1199043
   3.5895129   7.6127854  34.4912015   5.2673661  13.7781119  32.3342033
   5.4790556  14.4212879  31.6576414   5.2203409  12.9443435  31.8663963
   6.3819489  16.6553074  30.5064391   7.2036933  16.2533262  30.2247072
   6.3781892  16.5521308  31.4580506  14.4725482  12.9991823  26.8549362
  13.7189190  12.4299221  26.6993366  14.6073023  12.9654487  27.8019997
   1.4892586  18.4928792  36.6604423   1.0456441  17.7065170  36.3425328
   2.1509800  18.6807942  35.9948314   3.5873824  18.7731591  34.6885825
   3.5692300  19.5940472  34.1966094   4.5093745  18.6485667  34.9135966
   3.1766856  11.3844398  19.5675410   2.6613480  12.1549003  19.8063797
   2.9044165  10.7109534  20.1908471   8.1501130  14.1376753  21.5028583
   7.3730573  13.7987912  21.0583746   8.8292611  14.1429376  20.8283549
   2.9653159   9.2571490  21.3935191   2.6603295   9.5717639  22.2445334
   3.9183602   9.3352910  21.4362524   1.4099591  15.4161713  23.0428145
   0.8820953  14.6814473  22.7301383   0.9087094  16.1936390  22.7968113
   6.3892437  13.6110734  28.1595191   5.7316112  14.3009995  28.2475320
   7.1932837  14.0007166  28.5029178   5.1997896  11.9655107  26.2099133
   5.7129778  12.5985098  26.7120843   5.8499120  11.3656302  25.8442493
   2.4620270  21.9439431  18.9659804   1.7881969  22.2471128  19.5744762
   2.8486092  22.7468511  18.6165261   1.6778727   9.4404562  28.4557474
   0.7601288   9.6619509  28.2979162   2.0938871   9.5150873  27.5969181
   2.4613775  10.8395978  23.5860154   3.2085594  11.3517375  23.2767276
   2.7305364  10.5180031  24.4464548   5.9659692  16.9461108  24.3378276
   5.5122019  16.1052018  24.3943466   5.3353659  17.5822506  24.6753056
   4.9092612   7.8753094  25.5678943   4.1715369   7.3630480  25.8989186
   5.1619385   7.4353476  24.7562220   4.4092632  18.7837605  25.2728094
   4.7015606  19.3442662  24.5540460   4.9191252  19.0766166  26.0281253
   2.8191891  10.0302023  33.2602176   3.1741278  10.2573496  34.1196642
   3.4664022  10.3620400  32.6379432   8.5489628  13.1520459  23.9651505
   8.4107526  13.3422055  23.0372695   8.1925846  13.9139842  24.4219557
   8.5759007  15.2196986  28.9762777   9.0095514  15.1272275  29.8245831
   9.2890588  15.1954487  28.3382793   2.3086902  18.8199080  30.5095878
   2.3623924  19.3890017  31.2773593   1.4401683  18.9900965  30.1449915
   9.4374557  15.2620687  31.5095662   9.6310447  16.1666497  31.7554937
   9.3375175  14.8028106  32.3434247   4.4989665  15.4127430  37.0836543
   4.3475172  15.1837981  36.1666627   4.4894345  16.3698031  37.0967888
   1.2675002  12.9859342  32.0682809   2.1967062  13.1370502  31.8951777
   0.8466032  13.0743363  31.2131456   1.6168549  16.3891610  27.2270185
   1.2818381  16.3492379  28.1227835   1.1172494  15.7236325  26.7540595
   4.5527740  13.7347644  17.5007244   3.9356911  13.0094472  17.4040297
   4.0844229  14.4957004  17.1574319   6.2081872  18.4446552  35.1613025
   6.1494418  17.7605772  34.4943608   6.6101390  19.1865542  34.7093651
   6.2099279  16.4086136  33.3927004   5.3226058  16.0712058  33.5153403
   6.7797830  15.6769167  33.6295770  10.6916620  11.8194354  28.1543566
  10.6806496  12.7019069  27.7837499   9.8233999  11.4665904  27.9598103
   2.1999116  20.9674423  32.5146406   2.9127088  21.6021887  32.4422308
   1.7089145  21.0638289  31.6986408   3.9216643  14.8725675  24.0863698
   2.9872922  14.9927138  23.9168402   4.0993312  13.9698142  23.8223708
   7.3089194  10.7142994  24.6213732   7.7749647  11.5470986  24.5474035
   7.7596695  10.2487976  25.3258991   5.3765426  17.0586816  21.6199884
   5.6525269  16.9443410  22.5293758   4.5069924  16.6604301  21.5812057
   5.0512316  11.2713473  31.1604527   4.3983766  11.5189381  30.5056980
   5.4292696  10.4577612  30.8267005   2.0119490  21.3073167  25.2632698
   2.1941884  20.4894823  25.7260450   2.8352476  21.5240859  24.8257588
   2.3461655  20.2341352  22.5247746   2.8749422  19.7233806  21.9117908
   2.6089875  19.9183882  23.3893279   4.6933546  18.1461469  37.7376835
   5.2373450  18.7591428  37.2431790   4.1120391  18.7041048  38.2543848
   2.9791059  21.2682187  28.8691863   2.8542198  20.4671927  28.3602808
   3.6370150  21.7628381  28.3805833   5.0425967  19.0691208  30.4971413
   4.0956303  18.9496559  30.4249740   5.3908740  18.1813706  30.5797674
   2.0472401  18.8643924  26.6975765   1.8997363  17.9360631  26.8783335
   2.8725894  18.8864014  26.2132840   5.6506522  19.6872482  27.7840638
   6.5753070  19.4815344  27.6465089   5.4821826  19.4388884  28.6929979
   5.4401839  20.2058150  23.1402729   5.6138716  19.6404572  22.3876582
   5.9330730  21.0059045  22.9582219  11.2941230  12.9694573  24.7593029
  11.7372376  12.2201898  24.3612152  10.4167740  12.9604709  24.3766761
   6.4277011  19.5224914  20.2399628   7.1227916  20.1431607  20.4586942
   6.7700161  18.6720266  20.5152005   8.3268434  16.9724620  21.7686958
   8.8519758  17.3111893  21.0436278   8.2390787  16.0371635  21.5850093
   8.0162340  17.6057524  37.0738156   7.2257884  17.5881662  36.5342656
   7.7795695  18.1445817  37.8287193   8.1360215  14.4549990  34.3870885
   8.1858220  14.2899997  35.3286408   8.0274139  13.5877249  33.9968766
   5.4263978  10.4380918  35.7030192   6.3273841  10.2987383  35.4114189
   5.5011952  10.6035373  36.6428369   9.6378412  16.8746931  34.6312906
   9.3463220  17.2376912  35.4676367   9.0250543  16.1613940  34.4526238
  10.8374094  14.4399811  27.1515477  11.6720986  14.8789615  27.3153037
  10.9733223  13.9638464  26.3323722   7.8865600  11.9979546  33.0992964
   8.3619722  12.1907192  32.2911816   6.9631166  12.0538732  32.8536348
   6.5867269   8.8745306  31.3321270   7.5384692   8.9743404  31.3533494
   6.4170720   8.0823575  31.8419354   4.6081649   5.9600889  31.5180671
   4.0131581   6.2405902  30.8227159   4.3231346   6.4494790  32.2897412
   3.7389139  19.9123816  20.2783303   4.6719813  19.8469378  20.4816179
   3.6512352  20.7480083  19.8197836   6.3677156  19.2289687  17.2387251
   6.2890788  18.8949550  18.1323009   7.1886823  19.7211454  17.2378723
   9.0655347  12.0951426  30.4463570   9.0331667  11.1567427  30.6323253
   9.6755971  12.1735463  29.7129394   0.9038678  10.9647479  16.4890774
   1.8497783  10.8353687  16.5579192   0.5252923  10.2262141  16.9660202
   9.2149836   8.8862469  30.4921853   8.6988884   8.1020926  30.3051782
  10.0989784   8.5581186  30.6568372  14.8831897  13.1567433  29.5869606
  15.6135286  12.8952721  30.1477310  14.2738843  12.4196155  29.6271674
  12.9647194  11.2975295  30.1844058  12.2380358  11.1631260  29.5760549
  12.5494481  11.6052124  30.9900776   0.7877371  15.0165225  37.9491431
   1.7080380  15.1943824  38.1431477   0.7526954  14.0721270  37.7971130
   4.7937894   6.7813007  22.7649209   3.9063749   7.0662658  22.5469404
   5.2091883   6.6206771  21.9176486   8.1452430   6.8059528  26.4803549
   8.9212821   7.2955981  26.7528165   7.4200565   7.2317582  26.9375418
  10.5824989   7.5187147  27.5377489  11.1769480   7.2782883  26.8270797
  10.6551573   6.7994278  28.1651025   3.9381108  16.5457682  16.8597229
   4.6416958  16.7507684  17.4754885   3.2143757  17.1134444  17.1246313
   4.7678918  12.2967543  22.9799499   4.7114119  12.7536095  22.1407132
   5.3207261  11.5358228  22.8022342   8.5783724   8.0857275  23.8049619
   8.3220658   7.6853911  24.6357827   7.9536592   8.8001069  23.6799758
  12.8896062  10.8253348  26.3120910  12.3295620  10.8946538  27.0852472
  12.2839565  10.6494333  25.5920407   5.8467805  16.9840211  18.9095689
   6.6813409  16.5521410  18.7273164   5.6852148  16.8122225  19.8372584
   5.5013697  13.4872324  20.2752029   5.4462501  13.3216596  19.3340473
   4.8759753  14.1948357  20.4314218   2.8159605  15.7921236  39.6005591
   3.6850764  15.9661889  39.2392226   2.3366356  16.6115653  39.4781321
  14.4752080  27.5009862  29.0050866  15.1130490  27.3816610  28.3014206
  14.3572923  28.4490706  29.0638818  11.2841787  27.4537290  28.9412391
  10.9460298  27.3378355  28.0532926  12.1531555  27.0528455  28.9213397
   7.1428602  29.3072767  24.9309282   6.5793467  29.2162704  24.1625569
   7.0280997  28.4872671  25.4111774  11.7661570  28.6072142  34.8998596
  11.7550210  28.2124940  34.0279100  11.9282209  27.8738215  35.4932368
   4.6893034  30.8023958  27.7693502   5.4814326  30.4614783  27.3539801
   4.9289684  30.9118933  28.6895656  12.7228161  32.9743734  20.2423747
  12.0716141  33.5597815  19.8557760  13.5172524  33.5049929  20.3018784
   6.6483788  30.0632872  20.6410881   7.4214664  29.5161859  20.5023757
   7.0009187  30.9277121  20.8525342   8.4868831  31.3909254  33.8477780
   8.1958697  32.2954885  33.7324447   9.1225815  31.4325781  34.5621850
   9.4125038  28.7686102  30.4379140  10.0088610  28.5442125  29.7236103
   9.4700009  28.0270848  31.0404588   8.9850066  26.2225538  18.2729331
   9.2375587  25.7007059  17.5112794   8.0474625  26.0591683  18.3756015
  14.0293349  25.2261316  26.0804074  14.8156438  24.8080739  25.7294491
  14.2932053  26.1307408  26.2485723  14.2003426  30.6634166  20.7792731
  13.5649259  30.7368793  21.4913636  13.8700833  31.2527765  20.1011810
  19.4301776  25.1636549  26.9837053  20.1626948  24.5935766  27.2174882
  18.6741132  24.7758150  27.4243558   8.7046355  28.1253644  20.4753706
   8.5882613  27.4498547  21.1434790   8.8148615  27.6386018  19.6585859
  11.0477896  27.5863791  24.1800395  10.6836103  27.0594412  24.8913317
  11.9045012  27.1962260  24.0066881  16.9527196  18.8758123  31.4431661
  16.6210521  19.7453534  31.2192876  16.3572810  18.5594407  32.1225692
  10.6883383  22.6153690  19.1761744  10.8557785  23.4833927  19.5432215
  10.4980552  22.7780972  18.2523033  13.4458716  31.0770669  30.8427574
  13.1459439  31.9795708  30.7343381  13.1009775  30.8102853  31.6948727
   6.8971197  27.5284466  26.8764278   5.9721694  27.3960680  27.0841970
   7.1455610  28.3078685  27.3734221  16.8455860  23.5953210  28.5225011
  15.9372737  23.5268618  28.2283772  16.7943455  24.0725154  29.3506837
  10.6672604  25.0711348  20.1608410  10.5472229  25.5168399  20.9993891
   9.9725192  25.4196666  19.6021949   4.2580008  27.1717740  27.7108067
   4.3872389  27.4252219  28.6247479   3.5777460  27.7645448  27.3912723
   8.4279496  37.8414990  23.8098542   8.3503525  38.7922815  23.8887022
   7.8241139  37.4960862  24.4673468  10.9196725  25.0142855  36.4659909
  10.1430059  25.5736775  36.4562773  11.5587288  25.4999638  36.9874779
  18.7117506  21.7969648  30.3002885  18.0691886  22.0902181  29.6542680
  18.2072435  21.6822568  31.1056082  16.3657670  25.5432821  20.9888744
  17.2775526  25.7760208  20.8136442  15.8567317  26.1269865  20.4263823
   9.1743098  27.8228309  36.0277876   9.9157782  28.3613352  35.7512699
   8.4680083  28.4494597  36.1849427  14.6498437  29.9657449  34.6250037
  15.0581793  29.5239860  33.8804669  13.9275699  29.3910076  34.8784230
  11.0029507  24.9030056  31.9983594  11.8490703  25.3269469  32.1418243
  10.9428145  24.2463680  32.6922157  14.9727252  30.5258640  28.3802326
  14.3436114  30.6904354  27.6778394  14.5852914  30.9400249  29.1513290
  14.1528953  22.5634424  33.6564768  13.9089885  23.3176485  33.1199043
  14.4288883  22.9419772  34.4912015  16.1067415  29.1073036  32.3342033
  16.3184311  29.7504796  31.6576414  16.0597164  28.2735353  31.8663963
  13.7093644  21.7190857  29.2378605  12.8478123  22.0172111  29.5295343
  13.7356079  21.9361256  28.3059638  10.5255214  30.2633048  25.6452411
  10.9893559  30.5420751  24.8557034  10.2612012  29.3616492  25.4625502
   7.4179295  29.8104529  28.5832174   7.9880652  30.2391798  27.9449659
   8.0087407  29.5287114  29.2816360   9.4624100  26.3856200  22.4541976
  10.1648143  26.8377244  22.9215903   9.1304728  25.7440019  23.0821869
   7.9104461  24.9767957  36.8293186   7.2803122  25.6584238  37.0628582
   7.8040549  24.8651038  35.8846324   3.2049434  24.6439753  27.7559110
   2.4148488  24.8997281  27.2799220   3.6960681  25.4588091  27.8611150
  17.2213243  31.9844992  30.5064391  18.0430687  31.5825179  30.2247072
  17.2175646  31.8813226  31.4580506   5.1564179  25.0084332  24.7142586
   4.3595343  25.1203026  25.2326082   4.9289771  25.3470984  23.8483477
  10.9869847  31.5329035  32.6625101  11.0514279  31.9949442  33.4983273
  10.2780771  30.9026400  32.7907411   1.4887137  24.8970243  30.1874101
   1.7395175  25.7817253  30.4531676   2.0246685  24.7174845  29.4149192
  10.7017865  33.1997143  22.5304081  10.5663539  34.0448678  22.9588929
  11.2427677  33.4016420  21.7670015   7.1885204  19.2788723  39.1918437
   6.7952150  18.7254921  39.8666081   8.0051344  19.5899301  39.5824954
   4.1547262  30.7172581  23.1032006   4.6671782  31.5115831  23.2537571
   4.8069975  30.0198871  23.0365608   5.9642147  33.8338337  25.1854760
   6.1408775  34.7556302  24.9975744   6.7598980  33.5196756  25.6149139
  10.1053165  20.6946602  36.7838693  10.8462879  21.2953755  36.7043156
  10.3371088  19.9524239  36.2256736   5.2494503  25.8802969  35.0616923
   5.1348018  24.9788226  35.3624022   4.3939021  26.1266666  34.7101739
  12.3286341  33.8220709  36.6604423  11.8850195  33.0357088  36.3425328
  12.9903554  34.0099860  35.9948314   7.0873462  35.3516511  31.1865102
   7.6380887  35.2233574  30.4142096   6.2484938  35.6511400  30.8359995
  14.4267579  34.1023509  34.6885825  14.4086054  34.9232390  34.1966094
  15.3487499  33.9777584  34.9135966  10.8840633  31.6167639  35.5309333
  11.4168970  30.8555927  35.3008641  10.3554714  31.3241290  36.2733488
  14.0510328  16.7227705  31.0602975  13.7074597  17.6129346  30.9842085
  14.4189291  16.5329362  30.1972560   2.1196179  29.0461235  23.8791577
   2.9571401  29.4558243  23.6625285   2.2974446  28.1060677  23.8491771
  14.0160611  26.7136316  19.5675410  13.5007234  27.4840920  19.8063797
  13.7437919  26.0401452  20.1908471  11.6007722  21.5586016  24.6260648
  10.7449318  21.1692867  24.4466287  12.0134674  21.6377977  23.7660434
  13.1306868  19.0932360  29.0252208  12.6271664  19.0562495  28.2120013
  13.4237475  20.0025102  29.0848865   9.3749754  19.1771089  28.0318390
  10.2402751  18.9813898  27.6724279   9.4427263  18.9481441  28.9587747
  13.8046914  24.5863408  21.3935191  13.4997050  24.9009557  22.2445334
  14.7577356  24.6644828  21.4362524  12.2493346  30.7453631  23.0428145
  11.7214707  30.0106391  22.7301383  11.7480849  31.5228307  22.7968113
  17.2286192  28.9402652  28.1595191  16.5709866  29.6301913  28.2475320
  18.0326591  29.3299084  28.5029178   6.9812073  21.4073297  25.4034757
   7.5555825  21.1848479  24.6707950   7.5683056  21.4761992  26.1563358
  16.0391651  27.2947024  26.2099133  16.5523532  27.9277016  26.7120843
  16.6892875  26.6948220  25.8442493   7.3081661  23.4377758  19.4230642
   6.4718973  23.7752445  19.7439917   7.1686430  23.3026738  18.4857779
   9.2834741  18.2814546  24.1309826   8.6299153  17.9663563  23.5066441
   9.2415215  17.6590287  24.8569649  10.3945946  28.5633841  16.0463118
   9.4873008  28.3323095  16.2454267  10.8916978  27.7671461  16.2337100
  13.3014025  37.2731349  18.9659804  12.6275724  37.5763045  19.5744762
  13.6879847  38.0760429  18.6165261  12.5172482  24.7696480  28.4557474
  11.5995043  24.9911427  28.2979162  12.9332625  24.8442790  27.5969181
  13.3007529  26.1687895  23.5860154  14.0479348  26.6809293  23.2767276
  13.5699119  25.8471948  24.4464548  11.5734179  28.6646436  20.5687108
  10.6645399  28.3805469  20.6659578  11.6029263  29.0845515  19.7090415
  16.8053447  32.2753026  24.3378276  16.3515774  31.4343936  24.3943466
  16.1747414  32.9114424  24.6753056  15.7486366  23.2045012  25.5678943
  15.0109123  22.6922398  25.8989186  16.0013140  22.7645393  24.7562220
  15.2486386  34.1129522  25.2728094  15.5409360  34.6734580  24.5540460
  15.7585007  34.4058083  26.0281253  15.8497994  15.9821264  26.1620713
  16.1556871  15.1218627  25.8746628  16.5750599  16.5738884  25.9619706
   2.1422350  26.3851950  24.5502310   1.9446750  25.7921311  23.8253377
   1.5869014  26.0804161  25.2678249  10.1219073  26.2775057  26.6696904
  10.1767683  25.3248893  26.5939380   9.3110276  26.4334496  27.1538202
  11.2710267  30.2055180  17.9075187  10.8329697  29.4891039  17.4480824
  12.0120708  30.4331295  17.3460278   8.0611433  24.8952117  24.4287282
   7.2479299  25.1946287  24.8352475   8.5570428  24.5007805  25.1461765
  10.2120011  34.8909873  26.3621547  10.1696190  35.1170720  25.4330079
  11.1282710  34.6573248  26.5107348  13.6585645  25.3593941  33.2602176
  14.0135033  25.5865414  34.1196642  14.3057776  25.6912318  32.6379432
   7.5525508  22.4670472  30.0448517   8.1924887  22.3259231  29.3471481
   6.7203039  22.1804985  29.6687119   8.3285812  31.7672903  26.1583510
   9.1226411  31.2723223  25.9566085   7.6177504  31.2390766  25.7951215
  13.1480657  34.1490998  30.5095878  13.2017679  34.7181934  31.2773593
  12.2795438  34.3192883  30.1449915   4.6368576  25.9115984  22.2343263
   3.7066164  25.8500440  22.4513225   4.7326048  25.3891937  21.4379904
   4.5554125  22.4370797  24.8221504   4.8160942  23.3516130  24.7130665
   5.3771297  21.9695240  24.9718117   6.0279050  23.8508554  31.9920329
   6.7002103  23.6425916  31.3432978   5.2008836  23.6530640  31.5525561
  20.2768311  30.5912605  31.5095662  20.4704201  31.4958415  31.7554937
  20.1768929  30.1320024  32.3434247  11.9304622  20.4770495  34.0085990
  11.2832537  21.1760445  33.9150466  12.7005637  20.9106639  34.3762238
  15.3383420  30.7419347  37.0836543  15.1868926  30.5129899  36.1666627
  15.3288099  31.6989949  37.0967888  12.1068756  28.3151260  32.0682809
  13.0360816  28.4662420  31.8951777  11.6859786  28.4035281  31.2131456
  10.9057088  32.3401924  29.8381347  10.7668174  31.9720709  30.7107285
  10.1171684  32.8549564  29.6665305  11.5005240  37.4411021  21.1806884
  11.6756996  36.9699064  21.9952506  10.8138028  38.0676787  21.4088144
  12.4562303  31.7183527  27.2270185  12.1212136  31.6784297  28.1227835
  11.9566249  31.0528243  26.7540595   6.4306547  27.1251157  32.7522766
   6.2926345  26.3931396  33.3534305   7.3411471  27.0360057  32.4706954
  15.3921495  29.0639562  17.5007244  14.7750665  28.3386390  17.4040297
  14.9237983  29.8248922  17.1574319   9.0588848  26.8371117  32.2406446
   9.7688466  26.1964309  32.1993064   9.0158156  27.0884011  33.1632626
  17.0475627  33.7738470  35.1613025  16.9888173  33.0897690  34.4943608
  17.4495145  34.5157460  34.7093651   7.7717782  23.8236334  34.0602085
   7.2355139  23.3727073  34.7123681   7.1834490  23.9582243  33.3172549
   6.0666325  40.5900384  27.9546744   6.3062924  41.2218908  28.6325762
   5.2235522  40.2388424  28.2412103   7.1820041  23.2824986  16.6228549
   6.3049507  23.1613787  16.2590795   7.6577794  22.4911064  16.3707437
  17.0493034  31.7378054  33.3927004  16.1619813  31.4003976  33.5153403
  17.6191585  31.0061085  33.6295770   3.5056903  22.9592342  31.1455080
   3.4215092  22.3518012  30.4105489   2.6839609  23.4501360  31.1464576
  10.5794187  36.3979506  30.3588248  10.5064359  37.2034478  30.8707552
  10.1371580  36.5971472  29.5336269  10.3683967  35.6351276  23.8691069
   9.5851489  36.1772956  23.9629294  11.0676712  36.1525256  24.2685310
  13.6780617  21.4445906  26.5125275  14.1749316  20.6915868  26.1926345
  12.9067598  21.4810222  25.9468484  13.0392871  36.2966340  32.5146406
  13.7520843  36.9313805  32.4422308  12.5482899  36.3930206  31.6986408
  14.7610398  30.2017593  24.0863698  13.8266676  30.3219055  23.9168402
  14.9387066  29.2990060  23.8223708  10.2615586  23.5863289  26.2396959
   9.8913373  23.0334329  26.9277865  10.7574678  22.9821422  25.6871959
   8.0904784  34.0460784  33.3351977   8.7914244  34.6797267  33.4881371
   7.6199899  34.3875515  32.5747616  16.2159180  32.3878733  21.6199884
  16.4919024  32.2735328  22.5293758  15.3463679  31.9896218  21.5812057
  16.1199612  18.4115499  28.6604633  15.2062692  18.6419726  28.8286840
  16.5492713  18.4953943  29.5118666  15.8906070  26.6005391  31.1604527
  15.2377520  26.8481299  30.5056980  16.2686450  25.7869529  30.8267005
  12.8513244  36.6365084  25.2632698  13.0335639  35.8186740  25.7260450
  13.6746230  36.8532777  24.8257588  13.1855410  35.5633269  22.5247746
  13.7143176  35.0525724  21.9117908  13.4483629  35.2475800  23.3893279
  11.9393643  27.3425202  37.6470565  11.2634280  27.2419331  38.3172940
  12.7621277  27.1864416  38.1106562   3.6872502  33.5797139  30.2683080
   4.2725939  32.8340827  30.4010984   3.4897341  33.8901095  31.1519744
   6.5411158  36.6148386  25.2845522   5.8721533  37.0994514  24.8009562
   6.4024027  36.8617607  26.1988901  10.6816426  38.6492130  31.8828181
  11.2334734  38.8123751  32.6477266  11.0222620  39.2396567  31.2108205
   5.6580919  20.9967279  32.4850065   5.7222246  21.8582110  32.0727463
   5.5948040  20.3841281  31.7522424   5.1333192  23.0690412  36.1323100
   5.7605231  22.6867489  36.7460624   4.2761111  22.8504614  36.4978792
  15.5327300  33.4753387  37.7376835  16.0767204  34.0883345  37.2431790
  14.9514145  34.0332966  38.2543848   1.9098735  24.8766841  22.0641454
   2.2052176  23.9677519  22.0108508   1.0086770  24.8554581  21.7422457
  13.8184813  36.5974105  28.8691863  13.6935953  35.7963845  28.3602808
  14.4763904  37.0920299  28.3805833   5.4392982  22.9522838  28.0469003
   4.7179567  23.5658805  27.9076476   6.2286237  23.4880602  27.9685649
  15.8819722  34.3983125  30.4971413  14.9350057  34.2788476  30.4249740
  16.2302495  33.5105623  30.5797674   8.2419295  20.2877264  34.3209655
   8.7653697  20.5339561  35.0835964   8.0231628  21.1197299  33.9012792
   3.6386576  22.5580939  22.1880780   3.3099282  21.6778318  22.0055885
   3.9925947  22.5028607  23.0757169  12.8866155  34.1935841  26.6975765
  12.7391117  33.2652549  26.8783335  13.7119649  34.2155932  26.2132840
   6.7528399  22.8453909  22.5556257   7.0924472  23.3739830  21.8334866
   7.2000520  23.1834315  23.3314824  16.4900277  35.0164400  27.7840638
  17.4146824  34.8107262  27.6465089  16.3215580  34.7680801  28.6929979
   9.4471840  21.2290959  32.0059325   9.1068661  20.4298772  32.4080005
   8.7410846  21.5292670  31.4336158  10.0988312  18.3140272  30.4586648
  10.9214381  17.8400750  30.3365539  10.3426376  19.0930755  30.9585335
   8.7396547  21.3428530  20.7549550   9.4604909  21.7209783  20.2513267
   8.1161851  22.0617407  20.8584528  12.8827669  22.0473679  21.6907882
  13.0991284  22.9298317  21.3896710  12.4021737  21.6559893  20.9613524
   7.6226891  25.0059392  28.2678627   7.4771471  25.3199695  29.1602908
   7.1452094  25.6244293  27.7149526   9.4823274  21.9961940  28.3159516
   9.4684842  21.1003034  27.9791814  10.1995702  22.0032604  28.9497802
  11.3349404  22.4299281  30.3612644  11.0767182  23.3516351  30.3596974
  10.8034445  22.0329715  31.0513108  16.2795593  35.5350068  23.1402729
  16.4532471  34.9696490  22.3876582  16.7724484  36.3350963  22.9582219
   2.0972553  27.5464737  31.2066288   1.5526021  28.3224545  31.3386562
   2.9751903  27.8935541  31.0485409   8.8860170  20.8776321  23.5847087
   9.0076081  19.9492967  23.7837974   8.5962212  20.8915007  22.6725402
  11.7551360  18.5631231  26.7213806  11.7773057  18.6270564  25.7665786
  12.1719419  17.7235740  26.9154313  17.2670766  34.8516832  20.2399628
  17.9621670  35.4723525  20.4586942  17.6093916  34.0012183  20.5152005
   2.8838575  26.6734633  34.0996445   2.1420311  26.8217268  34.6861075
   2.5631319  26.9342899  33.2363194  10.8282237  36.2150611  33.8976835
  11.1369364  35.9699758  34.7699535  11.6257719  36.4197250  33.4095705
  10.8502849  38.3688521  26.1282211  10.4107840  37.8764900  26.8215068
  11.6010966  37.8261489  25.8874287   3.3295188  34.5600062  26.1306840
   4.1553208  34.2603834  25.7505483   2.9789240  33.7907684  26.5796628
   8.2976722  33.9126530  28.2004513   7.6756731  33.2497235  27.9006741
   8.9681589  33.9387662  27.5178161   1.5303794  32.4786388  27.0895773
   0.6935702  32.0508563  26.9079774   1.5027439  32.6718832  28.0266564
   8.3701249  22.3908318  37.7937019   8.4189405  23.2670441  37.4114789
   8.9123763  21.8485711  37.2208662  18.8556095  32.9349441  37.0738156
  18.0651639  32.9173580  36.5342656  18.6189449  33.4737735  37.8287193
  18.9753970  29.7841908  34.3870885  19.0251975  29.6191915  35.3286408
  18.8667893  28.9169167  33.9968766   7.8590229  32.4630453  21.6762974
   8.0078349  33.1465918  21.0229646   8.6656672  32.4435543  22.1912429
  16.2657732  25.7672836  35.7030192  17.1667595  25.6279300  35.4114189
  16.3405707  25.9327290  36.6428369  10.6000538  23.1439690  34.5483378
   9.7303847  23.4373256  34.2765966  10.8360018  23.7280135  35.2690641
  20.4772167  32.2038849  34.6312906  20.1856975  32.5668830  35.4676367
  19.8644298  31.4905857  34.4526238  18.7259355  27.3271464  33.0992964
  19.2013477  27.5199110  32.2911816  17.8024920  27.3830650  32.8536348
   5.6142862  28.4895631  22.6824043   5.3688903  27.5857961  22.8804253
   5.7838776  28.4912781  21.7403521  13.3039571  19.3619307  32.0648798
  13.8221515  20.0980334  31.7395287  12.9494704  19.6683301  32.8995557
   4.8838509  24.2223988  20.1810204   4.1907754  24.2968343  19.5250240
   4.6390261  23.4584332  20.7031721  13.5552166  15.7819590  27.5849695
  13.8353919  15.1142779  28.2110121  14.3402772  15.9748685  27.0724359
  11.3585634  34.9578584  19.1474721  10.7859601  35.5768771  18.6945193
  11.9318428  35.5077945  19.6814643  17.4261024  24.2037224  31.3321270
  18.3778447  24.3035321  31.3533494  17.2564474  23.4115492  31.8419354
  15.4475403  21.2892807  31.5180671  14.8525335  21.5697820  30.8227159
  15.1625100  21.7786708  32.2897412  14.5782894  35.2415734  20.2783303
  15.5113567  35.1761296  20.4816179  14.4906107  36.0772001  19.8197836
  17.2070911  34.5581604  17.2387251  17.1284542  34.2241468  18.1323009
  18.0280577  35.0503372  17.2378723  11.7432433  26.2939396  16.4890774
  12.6891537  26.1645605  16.5579192  11.3646678  25.5554058  16.9660202
  17.7154317  17.9595403  26.4517665  17.5179138  17.6510491  27.3360997
  18.3254023  18.6857041  26.5815595  11.6271125  30.3457143  37.9491431
  12.5474135  30.5235742  38.1431477  11.5920708  29.4013188  37.7971130
   9.9275350  24.2189373  16.4245659   9.0206805  23.9222486  16.5008372
  10.2051331  23.9219191  15.5579945   4.6233198  28.2558177  30.5914212
   4.8419207  29.1875285  30.6102246   5.0358971  27.8966152  31.3769016
  11.5437415  18.7626263  22.5789900  10.7338144  18.4173348  22.9545146
  12.2321832  18.4533806  23.1677512  13.4727964  17.8404309  24.2014197
  14.0259002  18.2599763  24.8604220  13.7098050  16.9140057  24.2437153
   9.4961063  23.8291383  39.9816961   9.3957790  24.7785740  39.9129052
   9.2782605  23.5009622  39.1093031   8.6974134  21.0776308  16.5657638
   9.5593298  21.4031206  16.8253455   8.8824478  20.2907804  16.0530704
  16.8506771  19.9504835  23.7092861  16.2705440  20.6089639  23.3270913
  16.5842704  19.1282179  23.2980279  15.3010337  19.3509892  25.9114181
  15.8010116  19.4626427  25.1028500  15.9445945  19.0470945  26.5514990
   9.3592333  27.2588522  38.7982022   8.8759415  28.0588882  39.0045911
   9.4453272  27.2696467  37.8449466   2.6278293  29.0916902  26.7203842
   2.6048981  29.1904589  25.7685725   2.9378929  29.9382052  27.0421008
   5.2865671  31.1493057  30.8350456   6.2408924  31.1176999  30.7680388
   5.0878194  30.6883680  31.6500682   5.8765053  29.7194173  33.4021254
   6.6957942  30.2138251  33.4256091   6.1501860  28.8026141  33.3738821
  15.6331649  22.1104925  22.7649209  14.7457504  22.3954576  22.5469404
  16.0485638  21.9498688  21.9176486  18.9846185  22.1351446  26.4803549
  19.7606575  22.6247898  26.7528165  18.2594319  22.5609500  26.9375418
  21.4218744  22.8479065  27.5377489  22.0163234  22.6074801  26.8270797
  21.4945327  22.1286196  28.1651025   3.6415899  36.6912676  27.8520654
   3.5070367  35.9313077  27.2858652   3.2247962  37.4153576  27.3849443
  14.7774862  31.8749600  16.8597229  15.4810712  32.0799602  17.4754885
  14.0537511  32.4426361  17.1246313  15.6072673  27.6259461  22.9799499
  15.5507874  28.0828012  22.1407132  16.1601015  26.8650145  22.8022342
  19.4177478  23.4149193  23.8049619  19.1614413  23.0145828  24.6357827
  18.7930347  24.1292987  23.6799758   6.7985025  37.5881993  28.0639097
   6.6817409  38.5327426  27.9617787   5.9777471  37.2855555  28.4524896
  16.6861560  32.3132129  18.9095689  17.5207164  31.8813327  18.7273164
  16.5245903  32.1414142  19.8372584  16.3407452  28.8164242  20.2752029
  16.2856256  28.6508514  19.3340473  15.7153507  29.5240275  20.4314218
   1.1299967  24.0532306  34.1013451   1.7758830  23.5431260  34.5900676
   0.9217118  24.7900988  34.6756876  13.6553359  31.1213154  39.6005591
  14.5244519  31.2953806  39.2392226  13.1760111  31.9407571  39.4781321
   9.6503577  18.3172351  19.8537347   9.6382247  19.2614191  20.0105618
  10.5426999  18.1342497  19.5596808   7.8239539  38.2410255  31.2795025
   8.7266786  38.2733865  31.5961520   7.5976909  37.3110706  31.2941361
   9.5793141  36.9941242  27.9405104   8.6288772  36.9943103  27.8269476
   9.8825627  36.2473976  27.4241138  13.4655697  14.9115128  24.1083284
  12.6988093  14.3573614  24.2539966  13.8766402  14.9836997  24.9697435
   5.4697458  21.1999924  38.1988465   6.3328919  20.8436728  38.4091790
   4.8962869  20.8613818  38.8863869  25.3145835  42.8301780  29.0050866
  25.9524245  42.7108527  28.3014206  25.1966678  43.7782624  29.0638818
  22.1235541  42.7829208  28.9412391  21.7854053  42.6670273  28.0532926
  22.9925309  42.3820373  28.9213397  17.9822357  44.6364684  24.9309282
  17.4187222  44.5454621  24.1625569  17.8674752  43.8164589  25.4111774
  22.6055324  43.9364060  34.8998596  22.5943965  43.5416858  34.0279100
  22.7675964  43.2030132  35.4932368  15.5286789  46.1315876  27.7693502
  16.3208081  45.7906701  27.3539801  15.7683439  46.2410851  28.6895656
  23.5621916  48.3035652  20.2423747  22.9109895  48.8889733  19.8557760
  24.3566278  48.8341847  20.3018784  17.4877543  45.3924789  20.6410881
  18.2608419  44.8453776  20.5023757  17.8402942  46.2569039  20.8525342
  19.3262585  46.7201172  33.8477780  19.0352451  47.6246802  33.7324447
  19.9619570  46.7617699  34.5621850  20.2518792  44.0978020  30.4379140
  20.8482364  43.8734042  29.7236103  20.3093764  43.3562766  31.0404588
  19.8243820  41.5517455  18.2729331  20.0769341  41.0298977  17.5112794
  18.8868380  41.3883601  18.3756015  24.8687103  40.5553234  26.0804074
  25.6550193  40.1372657  25.7294491  25.1325808  41.4599326  26.2485723
  25.0397181  45.9926084  20.7792731  24.4043014  46.0660711  21.4913636
  24.7094587  46.5819683  20.1011810  30.2695530  40.4928467  26.9837053
  31.0020702  39.9227684  27.2174882  29.5134886  40.1050067  27.4243558
  19.5440109  43.4545561  20.4753706  19.4276367  42.7790465  21.1434790
  19.6542369  42.9677935  19.6585859  21.8871650  42.9155708  24.1800395
  21.5229857  42.3886329  24.8913317  22.7438766  42.5254178  24.0066881
  21.5277137  37.9445608  19.1761744  21.6951539  38.8125845  19.5432215
  21.3374306  38.1072890  18.2523033  24.2852470  46.4062587  30.8427574
  23.9853193  47.3087626  30.7343381  23.9403530  46.1394770  31.6948727
  17.7364952  42.8576384  26.8764278  16.8115448  42.7252598  27.0841970
  17.9849365  43.6370603  27.3734221  27.6849614  38.9245127  28.5225011
  26.7766491  38.8560536  28.2283772  27.6337210  39.4017072  29.3506837
  21.5066358  40.4003266  20.1608410  21.3865983  40.8460316  20.9993891
  20.8118946  40.7488583  19.6021949  15.0973763  42.5009657  27.7108067
  15.2266144  42.7544136  28.6247479  14.4171214  43.0937365  27.3912723
  21.7590480  40.3434773  36.4659909  20.9823814  40.9028693  36.4562773
  22.3981043  40.8291556  36.9874779  29.5511260  37.1261566  30.3002885
  28.9085641  37.4194099  29.6542680  29.0466189  37.0114486  31.1056082
  27.2051424  40.8724739  20.9888744  28.1169280  41.1052126  20.8136442
  26.6961071  41.4561783  20.4263823  20.0136852  43.1520226  36.0277876
  20.7551537  43.6905270  35.7512699  19.3073838  43.7786515  36.1849427
  25.4892192  45.2949367  34.6250037  25.8975548  44.8531777  33.8804669
  24.7669453  44.7201994  34.8784230  21.8423262  40.2321973  31.9983594
  22.6884457  40.6561387  32.1418243  21.7821900  39.5755598  32.6922157
  25.8121006  45.8550557  28.3802326  25.1829869  46.0196271  27.6778394
  25.4246669  46.2692167  29.1513290  29.6910238  46.7904995  25.7346690
  29.0061277  47.1703896  25.1843723  29.7754088  47.4000322  26.4678637
  24.9922707  37.8926342  33.6564768  24.7483639  38.6468402  33.1199043
  25.2682638  38.2711689  34.4912015  26.9461170  44.4364954  32.3342033
  27.1578065  45.0796714  31.6576414  26.8990918  43.6027271  31.8663963
  24.5487399  37.0482775  29.2378605  23.6871878  37.3464028  29.5295343
  24.5749834  37.2653174  28.3059638  21.3648968  45.5924965  25.6452411
  21.8287314  45.8712668  24.8557034  21.1005766  44.6908410  25.4625502
  18.2573049  45.1396447  28.5832174  18.8274406  45.5683715  27.9449659
  18.8481161  44.8579032  29.2816360  20.3017854  41.7148118  22.4541976
  21.0041898  42.1669161  22.9215903  19.9698483  41.0731937  23.0821869
  18.7498216  40.3059874  36.8293186  18.1196876  40.9876155  37.0628582
  18.6434304  40.1942956  35.8846324  14.0443188  39.9731670  27.7559110
  13.2542242  40.2289199  27.2799220  14.5354436  40.7880008  27.8611150
  28.0606998  47.3136910  30.5064391  28.8824442  46.9117097  30.2247072
  28.0569401  47.2105144  31.4580506  15.9957934  40.3376250  24.7142586
  15.1989097  40.4494944  25.2326082  15.7683526  40.6762902  23.8483477
  21.8263601  46.8620953  32.6625101  21.8908034  47.3241360  33.4983273
  21.1174525  46.2318318  32.7907411  12.3280891  40.2262161  30.1874101
  12.5788930  41.1109171  30.4531676  12.8640440  40.0466762  29.4149192
  36.1512991  43.6575658  26.8549362  35.3976699  43.0883056  26.6993366
  36.2860532  43.6238323  27.8019997  21.5411619  48.5289060  22.5304081
  21.4057294  49.3740596  22.9588929  22.0821432  48.7308338  21.7670015
  18.0278959  34.6080640  39.1918437  17.6345904  34.0546839  39.8666081
  18.8445099  34.9191219  39.5824954  14.9941016  46.0464498  23.1032006
  15.5065537  46.8407749  23.2537571  15.6463729  45.3490789  23.0365608
  16.8035901  49.1630255  25.1854760  16.9802529  50.0848219  24.9975744
  17.5992735  48.8488674  25.6149139  20.9446920  36.0238519  36.7838693
  21.6856633  36.6245672  36.7043156  21.1764842  35.2816157  36.2256736
  16.0888258  41.2094887  35.0616923  15.9741773  40.3080144  35.3624022
  15.2332775  41.4558583  34.7101739  23.1680095  49.1512627  36.6604423
  22.7243950  48.3649005  36.3425328  23.8297309  49.3391777  35.9948314
  17.9267217  50.6808428  31.1865102  18.4774642  50.5525492  30.4142096
  17.0878692  50.9803317  30.8359995  25.2661333  49.4315427  34.6885825
  25.2479809  50.2524308  34.1966094  26.1881254  49.3069502  34.9135966
  21.7234388  46.9459556  35.5309333  22.2562724  46.1847844  35.3008641
  21.1948469  46.6533208  36.2733488  12.9589933  44.3753153  23.8791577
  13.7965155  44.7850161  23.6625285  13.1368201  43.4352595  23.8491771
  24.8554365  42.0428233  19.5675410  24.3400989  42.8132838  19.8063797
  24.5831674  41.3693370  20.1908471  22.4401476  36.8877934  24.6260648
  21.5843073  36.4984785  24.4466287  22.8528428  36.9669895  23.7660434
  20.2143509  34.5063007  28.0318390  21.0796506  34.3105816  27.6724279
  20.2821018  34.2773359  28.9587747  29.8288639  44.7960588  21.5028583
  29.0518082  44.4571747  21.0583746  30.5080120  44.8013211  20.8283549
  24.6440668  39.9155325  21.3935191  24.3390804  40.2301475  22.2445334
  25.5971111  39.9936745  21.4362524  23.0887100  46.0745549  23.0428145
  22.5608462  45.3398308  22.7301383  22.5874603  46.8520225  22.7968113
  28.0679946  44.2694569  28.1595191  27.4103621  44.9593831  28.2475320
  28.8720346  44.6591001  28.5029178  17.8205828  36.7365215  25.4034757
  18.3949580  36.5140397  24.6707950  18.4076810  36.8053910  26.1563358
  26.8785405  42.6238942  26.2099133  27.3917287  43.2568934  26.7120843
  27.5286629  42.0240137  25.8442493  18.1475415  38.7669676  19.4230642
  17.3112727  39.1044363  19.7439917  18.0080185  38.6318656  18.4857779
  20.1228496  33.6106464  24.1309826  19.4692908  33.2955481  23.5066441
  20.0808970  32.9882204  24.8569649  21.2339700  43.8925759  16.0463118
  20.3266762  43.6615012  16.2454267  21.7310732  43.0963378  16.2337100
  24.1407779  52.6023266  18.9659804  23.4669478  52.9054963  19.5744762
  24.5273601  53.4052347  18.6165261  23.3566236  40.0988397  28.4557474
  22.4388797  40.3203344  28.2979162  23.7726380  40.1734708  27.5969181
  24.1401284  41.4979813  23.5860154  24.8873103  42.0101210  23.2767276
  24.4092873  41.1763866  24.4464548  22.4127934  43.9938354  20.5687108
  21.5039153  43.7097387  20.6659578  22.4423018  44.4137432  19.7090415
  27.6447201  47.6044943  24.3378276  27.1909528  46.7635853  24.3943466
  27.0141168  48.2406342  24.6753056  26.5880121  38.5336929  25.5678943
  25.8502878  38.0214316  25.8989186  26.8406894  38.0937311  24.7562220
  26.0880141  49.4421440  25.2728094  26.3803115  50.0026497  24.5540460
  26.5978761  49.7350001  26.0281253  12.9816104  41.7143868  24.5502310
  12.7840504  41.1213229  23.8253377  12.4262768  41.4096078  25.2678249
  20.9612828  41.6066974  26.6696904  21.0161438  40.6540811  26.5939380
  20.1504030  41.7626414  27.1538202  22.1104022  45.5347098  17.9075187
  21.6723452  44.8182956  17.4480824  22.8514463  45.7623212  17.3460278
  18.9005188  40.2244034  24.4287282  18.0873053  40.5238205  24.8352475
  19.3964182  39.8299723  25.1461765  21.0513766  50.2201791  26.3621547
  21.0089945  50.4462637  25.4330079  21.9676465  49.9865166  26.5107348
  24.4979400  40.6885859  33.2602176  24.8528787  40.9157332  34.1196642
  25.1451531  41.0204235  32.6379432  30.2277137  43.8104295  23.9651505
  30.0895035  44.0005891  23.0372695  29.8713355  44.5723677  24.4219557
  18.3919263  37.7962390  30.0448517  19.0318642  37.6551149  29.3471481
  17.5596793  37.5096903  29.6687119  30.2546516  45.8780822  28.9762777
  30.6883023  45.7856111  29.8245831  30.9678097  45.8538322  28.3382793
  19.1679567  47.0964820  26.1583510  19.9620165  46.6015140  25.9566085
  18.4571259  46.5682683  25.7951215  23.9874411  49.4782916  30.5095878
  24.0411433  50.0473852  31.2773593  23.1189192  49.6484801  30.1449915
  15.4762330  41.2407902  22.2343263  14.5459918  41.1792357  22.4513225
  15.5719802  40.7183855  21.4379904  15.3947879  37.7662715  24.8221504
  15.6554696  38.6808048  24.7130665  16.2165051  37.2987157  24.9718117
  16.8672804  39.1800472  31.9920329  17.5395858  38.9717834  31.3432978
  16.0402591  38.9822558  31.5525561  31.1162066  45.9204522  31.5095662
  31.3097956  46.8250333  31.7554937  31.0162684  45.4611941  32.3434247
  22.7698376  35.8062413  34.0085990  22.1226291  36.5052362  33.9150466
  23.5399392  36.2398557  34.3762238  26.1777174  46.0711265  37.0836543
  26.0262681  45.8421817  36.1666627  26.1681854  47.0281866  37.0967888
  22.9462511  43.6443178  32.0682809  23.8754571  43.7954337  31.8951777
  22.5253541  43.7327199  31.2131456  21.7450843  47.6693842  29.8381347
  21.6061928  47.3012627  30.7107285  20.9565439  48.1841482  29.6665305
  22.3398995  52.7702939  21.1806884  22.5150750  52.2990982  21.9952506
  21.6531783  53.3968705  21.4088144  23.2956058  47.0475445  27.2270185
  22.9605890  47.0076215  28.1227835  22.7960003  46.3820161  26.7540595
  17.2700302  42.4543075  32.7522766  17.1320100  41.7223314  33.3534305
  18.1805225  42.3651975  32.4706954  26.2315249  44.3931479  17.5007244
  25.6144420  43.6678307  17.4040297  25.7631738  45.1540839  17.1574319
  19.8982602  42.1663034  32.2406446  20.6082221  41.5256226  32.1993064
  19.8551910  42.4175929  33.1632626  27.8869381  49.1030388  35.1613025
  27.8281927  48.4189608  34.4943608  28.2888899  49.8449378  34.7093651
  18.6111536  39.1528252  34.0602085  18.0748893  38.7018991  34.7123681
  18.0228245  39.2874161  33.3172549  18.0213795  38.6116904  16.6228549
  17.1443262  38.4905704  16.2590795  18.4971548  37.8202982  16.3707437
  27.8886788  47.0669972  33.3927004  27.0013567  46.7295893  33.5153403
  28.4585339  46.3353003  33.6295770   9.5415935  43.3994063  26.7170056
  10.2286975  43.0855793  26.1291071   9.3864064  44.3035428  26.4437307
  14.3450658  38.2884260  31.1455080  14.2608846  37.6809929  30.4105489
  13.5233364  38.7793278  31.1464576  21.4187942  51.7271424  30.3588248
  21.3458113  52.5326395  30.8707552  20.9765335  51.9263390  29.5336269
  21.2077721  50.9643194  23.8691069  20.4245243  51.5064874  23.9629294
  21.9070466  51.4817174  24.2685310  32.3704129  42.4778189  28.1543566
  32.3594005  43.3602904  27.7837499  31.5021508  42.1249740  27.9598103
  23.8786625  51.6258258  32.5146406  24.5914597  52.2605723  32.4422308
  23.3876654  51.7222124  31.6986408  25.6004152  45.5309511  24.0863698
  24.6660431  45.6510973  23.9168402  25.7780821  44.6281977  23.8223708
  21.1009340  38.9155206  26.2396959  20.7307128  38.3626247  26.9277865
  21.5968433  38.3113340  25.6871959  28.9876703  41.3726830  24.6213732
  29.4537156  42.2054821  24.5474035  29.4384204  40.9071811  25.3258991
  18.9298539  49.3752701  33.3351977  19.6307998  50.0089184  33.4881371
  18.4593654  49.7167433  32.5747616  27.0552935  47.7170651  21.6199884
  27.3312778  47.6027246  22.5293758  26.1857433  47.3188136  21.5812057
  26.7299825  41.9297309  31.1604527  26.0771275  42.1773216  30.5056980
  27.1080205  41.1161447  30.8267005  23.6906999  51.9657002  25.2632698
  23.8729393  51.1478658  25.7260450  24.5139985  52.1824694  24.8257588
  24.0249164  50.8925187  22.5247746  24.5536930  50.3817642  21.9117908
  24.2877384  50.5767717  23.3893279  22.7787398  42.6717120  37.6470565
  22.1028035  42.5711249  38.3172940  23.6015032  42.5156334  38.1106562
  14.5266257  48.9089056  30.2683080  15.1119694  48.1632744  30.4010984
  14.3291095  49.2193013  31.1519744  17.3804912  51.9440304  25.2845522
  16.7115287  52.4286431  24.8009562  17.2417782  52.1909524  26.1988901
   9.1183912  41.4794657  28.9887523   9.1568011  40.9458247  29.7824641
   8.6124204  40.9529862  28.3698500  16.4974674  36.3259197  32.4850065
  16.5616000  37.1874028  32.0727463  16.4341794  35.7133199  31.7522424
  15.9726946  38.3982330  36.1323100  16.5998985  38.0159407  36.7460624
  15.1154865  38.1796532  36.4978792  26.3721055  48.8045305  37.7376835
  26.9160959  49.4175263  37.2431790  25.7907900  49.3624883  38.2543848
  12.7492489  40.2058759  22.0641454  13.0445930  39.2969437  22.0108508
  11.8480525  40.1846498  21.7422457  24.6578568  51.9266023  28.8691863
  24.5329707  51.1255763  28.3602808  25.3157659  52.4212216  28.3805833
  16.2786736  38.2814755  28.0469003  15.5573322  38.8950723  27.9076476
  17.0679992  38.8172520  27.9685649  26.7213476  49.7275043  30.4971413
  25.7743812  49.6080394  30.4249740  27.0696249  48.8397541  30.5797674
  19.0813050  35.6169182  34.3209655  19.6047451  35.8631478  35.0835964
  18.8625383  36.4489217  33.9012792  14.4780331  37.8872856  22.1880780
  14.1493037  37.0070235  22.0055885  14.8319701  37.8320525  23.0757169
  23.7259910  49.5227759  26.6975765  23.5784872  48.5944467  26.8783335
  24.5513403  49.5447850  26.2132840  17.5922154  38.1745826  22.5556257
  17.9318226  38.7031747  21.8334866  18.0394274  38.5126232  23.3314824
  27.3294031  50.3456318  27.7840638  28.2540579  50.1399179  27.6465089
  27.1609335  50.0972719  28.6929979  20.2865595  36.5582877  32.0059325
  19.9462415  35.7590690  32.4080005  19.5804601  36.8584588  31.4336158
  19.5790301  36.6720448  20.7549550  20.2998663  37.0501701  20.2513267
  18.9555605  37.3909325  20.8584528  23.7221424  37.3765597  21.6907882
  23.9385038  38.2590235  21.3896710  23.2415491  36.9851810  20.9613524
  18.4620645  40.3351310  28.2678627  18.3165226  40.6491613  29.1602908
  17.9845849  40.9536210  27.7149526  20.3217028  37.3253858  28.3159516
  20.3078597  36.4294951  27.9791814  21.0389456  37.3324522  28.9497802
  22.1743159  37.7591198  30.3612644  21.9160937  38.6808269  30.3596974
  21.6428199  37.3621633  31.0513108  27.1189348  50.8641985  23.1402729
  27.2926225  50.2988408  22.3876582  27.6118239  51.6642880  22.9582219
  12.9366307  42.8756654  31.2066288  12.3919775  43.6516462  31.3386562
  13.8145657  43.2227459  31.0485409  19.7253924  36.2068238  23.5847087
  19.8469835  35.2784884  23.7837974  19.4355966  36.2206924  22.6725402
  32.9728739  43.6278408  24.7593029  33.4159885  42.8785733  24.3612152
  32.0955249  43.6188545  24.3766761  28.1064520  50.1808750  20.2399628
  28.8015425  50.8015442  20.4586942  28.4487670  49.3304101  20.5152005
  13.7232329  42.0026551  34.0996445  12.9814065  42.1509186  34.6861075
  13.4025074  42.2634816  33.2363194  30.0055943  47.6308455  21.7686958
  30.5307267  47.9695728  21.0436278  29.9178296  46.6955471  21.5850093
  21.6675992  51.5442529  33.8976835  21.9763118  51.2991676  34.7699535
  22.4651474  51.7489167  33.4095705  21.6896604  53.6980439  26.1282211
  21.2501594  53.2056817  26.8215068  22.4404721  53.1553406  25.8874287
  14.1688943  49.8891979  26.1306840  14.9946963  49.5895751  25.7505483
  13.8182995  49.1199602  26.5796628  19.1370476  49.2418448  28.2004513
  18.5150485  48.5789153  27.9006741  19.8075343  49.2679579  27.5178161
  12.3697548  47.8078306  27.0895773  11.5329456  47.3800480  26.9079774
  12.3421193  48.0010749  28.0266564  19.2095004  37.7200236  37.7937019
  19.2583159  38.5962358  37.4114789  19.7517518  37.1777629  37.2208662
  29.6949849  48.2641359  37.0738156  28.9045393  48.2465498  36.5342656
  29.4583204  48.8029653  37.8287193  29.8147724  45.1133825  34.3870885
  29.8645729  44.9483833  35.3286408  29.7061648  44.2461084  33.9968766
  18.6983983  47.7922371  21.6762974  18.8472103  48.4757835  21.0229646
  19.5050426  47.7727461  22.1912429  27.1051487  41.0964753  35.7030192
  28.0061349  40.9571218  35.4114189  27.1799461  41.2619208  36.6428369
  21.4394292  38.4731608  34.5483378  20.5697601  38.7665174  34.2765966
  21.6753772  39.0572053  35.2690641  31.3165921  47.5330767  34.6312906
  31.0250729  47.8960747  35.4676367  30.7038052  46.8197775  34.4526238
  32.5161603  45.0983647  27.1515477  33.3508495  45.5373451  27.3153037
  32.6520732  44.6222300  26.3323722  29.5653109  42.6563381  33.0992964
  30.0407231  42.8491028  32.2911816  28.6418675  42.7122567  32.8536348
  16.4536616  43.8187549  22.6824043  16.2082658  42.9149879  22.8804253
  16.6232531  43.8204699  21.7403521  15.7232264  39.5515906  20.1810204
  15.0301508  39.6260261  19.5250240  15.4784015  38.7876250  20.7031721
  22.1979389  50.2870501  19.1474721  21.6253356  50.9060689  18.6945193
  22.7712182  50.8369863  19.6814643  28.2654778  39.5329141  31.3321270
  29.2172201  39.6327239  31.3533494  28.0958229  38.7407410  31.8419354
  26.2869158  36.6184725  31.5180671  25.6919090  36.8989737  30.8227159
  26.0018855  37.1078626  32.2897412  25.4176648  50.5707652  20.2783303
  26.3507321  50.5053213  20.4816179  25.3299861  51.4063918  19.8197836
  28.0464665  49.8873522  17.2387251  27.9678297  49.5533385  18.1323009
  28.8674332  50.3795290  17.2378723  30.7442856  42.7535261  30.4463570
  30.7119176  41.8151262  30.6323253  31.3543480  42.8319298  29.7129394
  22.5826187  41.6231314  16.4890774  23.5285292  41.4937522  16.5579192
  22.2040432  40.8845976  16.9660202  30.8937345  39.5446305  30.4921853
  30.3776393  38.7604761  30.3051782  31.7777293  39.2165021  30.6568372
  36.5619406  43.8151268  29.5869606  37.2922795  43.5536556  30.1477310
  35.9526352  43.0779990  29.6271674  34.6434703  41.9559131  30.1844058
  33.9167867  41.8215096  29.5760549  34.2281990  42.2635959  30.9900776
  22.4664880  45.6749060  37.9491431  23.3867889  45.8527659  38.1431477
  22.4314463  44.7305106  37.7971130  20.7669104  39.5481291  16.4245659
  19.8600560  39.2514403  16.5008372  21.0445085  39.2511109  15.5579945
  11.6847045  40.8687654  26.8744705  11.3649829  40.0152962  26.5819079
  11.1380473  41.0836232  27.6302673  15.4626952  43.5850095  30.5914212
  15.6812962  44.5167203  30.6102246  15.8752726  43.2258069  31.3769016
  20.3354817  39.1583301  39.9816961  20.2351544  40.1077658  39.9129052
  20.1176359  38.8301540  39.1093031  19.5367889  36.4068226  16.5657638
  20.3987053  36.7323124  16.8253455  19.7218233  35.6199722  16.0530704
  11.5535305  44.4890565  28.8437827  10.8598776  44.0744518  28.3307781
  12.3008296  44.5311102  28.2471246  27.6900525  35.2796752  23.7092861
  27.1099194  35.9381556  23.3270913  27.4236458  34.4574097  23.2980279
  20.1986088  42.5880440  38.7982022  19.7153169  43.3880800  39.0045911
  20.2847027  42.5988384  37.8449466  13.4672047  44.4208819  26.7203842
  13.4442735  44.5196506  25.7685725  13.7772684  45.2673970  27.0421008
  16.1259425  46.4784974  30.8350456  17.0802679  46.4468917  30.7680388
  15.9271949  46.0175598  31.6500682  16.7158807  45.0486090  33.4021254
  17.5351696  45.5430169  33.4256091  16.9895615  44.1318058  33.3738821
  26.4725403  37.4396843  22.7649209  25.5851258  37.7246493  22.5469404
  26.8879392  37.2790606  21.9176486  29.8239939  37.4643364  26.4803549
  30.6000330  37.9539816  26.7528165  29.0988074  37.8901418  26.9375418
  32.2612498  38.1770983  27.5377489  32.8556989  37.9366719  26.8270797
  32.3339082  37.4578113  28.1651025  25.6168617  47.2041517  16.8597229
  26.3204467  47.4091520  17.4754885  24.8931266  47.7718279  17.1246313
  26.4466427  42.9551379  22.9799499  26.3901628  43.4119930  22.1407132
  26.9994770  42.1942063  22.8022342  30.2571233  38.7441110  23.8049619
  30.0008167  38.3437746  24.6357827  29.6324101  39.4584904  23.6799758
  34.5683571  41.4837184  26.3120910  34.0083129  41.5530373  27.0852472
  33.9627074  41.3078168  25.5920407  27.5255314  47.6424046  18.9095689
  28.3600918  47.2105245  18.7273164  27.3639657  47.4706060  19.8372584
  27.1801206  44.1456160  20.2752029  27.1250010  43.9800431  19.3340473
  26.5547262  44.8532193  20.4314218  11.9693721  39.3824224  34.1013451
  12.6152585  38.8723178  34.5900676  11.7610872  40.1192906  34.6756876
  24.4947114  46.4505072  39.6005591  25.3638273  46.6245724  39.2392226
  24.0153865  47.2699488  39.4781321  20.4186896  52.3233159  27.9405104
  19.4682527  52.3235021  27.8269476  20.7219382  51.5765894  27.4241138
  16.3091212  36.5291841  38.1988465  17.1722674  36.1728646  38.4091790
  15.7356623  36.1905736  38.8863869  36.1539589  58.1593698  29.0050866
  36.7917999  58.0400445  28.3014206  36.0360432  59.1074542  29.0638818
  32.9629296  58.1121126  28.9412391  32.6247807  57.9962190  28.0532926
  33.8319064  57.7112291  28.9213397  30.6637575  56.8809373  18.2729331
  30.9163096  56.3590894  17.5112794  29.7262134  56.7175519  18.3756015
  35.7080858  55.8845151  26.0804074  36.4943947  55.4664575  25.7294491
  35.9719562  56.7891244  26.2485723  41.1089285  55.8220385  26.9837053
  41.8414457  55.2519601  27.2174882  40.3528641  55.4341985  27.4243558
  32.7265405  58.2447626  24.1800395  32.3623612  57.7178247  24.8913317
  33.5832521  57.8546095  24.0066881  38.6314705  49.5341959  31.4431661
  38.2998030  50.4037370  31.2192876  38.0360319  49.2178243  32.1225692
  32.3670892  53.2737526  19.1761744  32.5345294  54.1417762  19.5432215
  32.1768061  53.4364808  18.2523033  38.5243369  54.2537045  28.5225011
  37.6160246  54.1852453  28.2283772  38.4730964  54.7308990  29.3506837
  32.3460112  55.7295183  20.1608410  32.2259738  56.1752234  20.9993891
  31.6512701  56.0780501  19.6021949  32.5984234  55.6726691  36.4659909
  31.8217568  56.2320611  36.4562773  33.2374797  56.1583473  36.9874779
  40.3905015  52.4553483  30.3002885  39.7479395  52.7486016  29.6542680
  39.8859944  52.3406404  31.1056082  38.0445179  56.2016657  20.9888744
  38.9563035  56.4344043  20.8136442  37.5354826  56.7853701  20.4263823
  32.6817016  55.5613891  31.9983594  33.5278212  55.9853305  32.1418243
  32.6215654  54.9047515  32.6922157  35.8316462  53.2218259  33.6564768
  35.5877394  53.9760320  33.1199043  36.1076392  53.6003607  34.4912015
  35.3881153  52.3774692  29.2378605  34.5265632  52.6755946  29.5295343
  35.4143588  52.5945091  28.3059638  31.1411609  57.0440035  22.4541976
  31.8435652  57.4961079  22.9215903  30.8092237  56.4023854  23.0821869
  29.5891970  55.6351792  36.8293186  28.9590631  56.3168073  37.0628582
  29.4828058  55.5234874  35.8846324  26.8351688  55.6668167  24.7142586
  26.0382851  55.7786862  25.2326082  26.6077280  56.0054820  23.8483477
  28.8672713  49.9372558  39.1918437  28.4739659  49.3838756  39.8666081
  29.6838853  50.2483136  39.5824954  31.7840674  51.3530437  36.7838693
  32.5250387  51.9537590  36.7043156  32.0158597  50.6108075  36.2256736
  35.7297837  47.3811540  31.0602975  35.3862106  48.2713182  30.9842085
  36.0976800  47.1913198  30.1972560  35.6948120  57.3720151  19.5675410
  35.1794743  58.1424756  19.8063797  35.4225428  56.6985287  20.1908471
  33.2795231  52.2169852  24.6260648  32.4236827  51.8276702  24.4466287
  33.6922183  52.2961813  23.7660434  34.8094377  49.7516195  29.0252208
  34.3059173  49.7146330  28.2120013  35.1024984  50.6608938  29.0848865
  31.0537263  49.8354925  28.0318390  31.9190260  49.6397733  27.6724279
  31.1214772  49.6065277  28.9587747  35.4834423  55.2447243  21.3935191
  35.1784559  55.5593392  22.2445334  36.4364865  55.3228663  21.4362524
  28.6599582  52.0657133  25.4034757  29.2343334  51.8432314  24.6707950
  29.2470565  52.1345827  26.1563358  37.7179160  57.9530860  26.2099133
  38.2311041  58.5860851  26.7120843  38.3680384  57.3532055  25.8442493
  28.9869170  54.0961594  19.4230642  28.1506482  54.4336280  19.7439917
  28.8473939  53.9610574  18.4857779  30.9622250  48.9398382  24.1309826
  30.3086662  48.6247399  23.5066441  30.9202724  48.3174122  24.8569649
  34.1959990  55.4280315  28.4557474  33.2782552  55.6495262  28.2979162
  34.6120134  55.5026626  27.5969181  34.9795038  56.8271731  23.5860154
  35.7266857  57.3393128  23.2767276  35.2486628  56.5055784  24.4464548
  37.4273875  53.8628847  25.5678943  36.6896632  53.3506233  25.8989186
  37.6800649  53.4229229  24.7562220  37.5285503  46.6405099  26.1620713
  37.8344380  45.7802463  25.8746628  38.2538108  47.2322719  25.9619706
  31.8006582  56.9358892  26.6696904  31.8555192  55.9832729  26.5939380
  30.9897784  57.0918331  27.1538202  29.7398942  55.5535952  24.4287282
  28.9266808  55.8530122  24.8352475  30.2357937  55.1591641  25.1461765
  35.3373154  56.0177776  33.2602176  35.6922542  56.2449250  34.1196642
  35.9845285  56.3496153  32.6379432  29.2313017  53.1254307  30.0448517
  29.8712396  52.9843067  29.3471481  28.3990548  52.8388821  29.6687119
  26.2341634  53.0954632  24.8221504  26.4948451  54.0099966  24.7130665
  27.0558806  52.6279075  24.9718117  27.7066559  54.5092390  31.9920329
  28.3789612  54.3009752  31.3432978  26.8796345  54.3114476  31.5525561
  33.6092131  51.1354331  34.0085990  32.9620046  51.8344280  33.9150466
  34.3793146  51.5690474  34.3762238  29.4505291  54.4820170  34.0602085
  28.9142648  54.0310908  34.7123681  28.8621999  54.6166079  33.3172549
  28.8607550  53.9408821  16.6228549  27.9837016  53.8197622  16.2590795
  29.3365303  53.1494899  16.3707437  25.1844412  53.6176177  31.1455080
  25.1002601  53.0101847  30.4105489  24.3627118  54.1085196  31.1464576
  35.3568126  52.1029741  26.5125275  35.8536825  51.3499703  26.1926345
  34.5855107  52.1394058  25.9468484  31.9403095  54.2447124  26.2396959
  31.5700882  53.6918164  26.9277865  32.4362187  53.6405257  25.6871959
  37.7987121  49.0699335  28.6604633  36.8850200  49.3003561  28.8286840
  38.2280222  49.1537779  29.5118666  37.5693579  57.2589226  31.1604527
  36.9165029  57.5065134  30.5056980  37.9473959  56.4453365  30.8267005
  33.6181152  58.0009038  37.6470565  32.9421789  57.9003167  38.3172940
  34.4408786  57.8448251  38.1106562  27.3368428  51.6551115  32.4850065
  27.4009755  52.5165946  32.0727463  27.2735549  51.0425116  31.7522424
  26.8120701  53.7274247  36.1323100  27.4392740  53.3451325  36.7460624
  25.9548620  53.5088449  36.4978792  27.1180491  53.6106673  28.0469003
  26.3967076  54.2242641  27.9076476  27.9073746  54.1464438  27.9685649
  29.9206804  50.9461100  34.3209655  30.4441206  51.1923396  35.0835964
  29.7019137  51.7781134  33.9012792  25.3174085  53.2164774  22.1880780
  24.9886791  52.3362153  22.0055885  25.6713456  53.1612443  23.0757169
  28.4315908  53.5037744  22.5556257  28.7711981  54.0323665  21.8334866
  28.8788029  53.8418150  23.3314824  31.1259349  51.8874795  32.0059325
  30.7856170  51.0882608  32.4080005  30.4198355  52.1876505  31.4336158
  31.7775821  48.9724107  30.4586648  32.6001890  48.4984585  30.3365539
  32.0213885  49.7514591  30.9585335  30.4184055  52.0012365  20.7549550
  31.1392418  52.3793618  20.2513267  29.7949360  52.7201242  20.8584528
  34.5615178  52.7057514  21.6907882  34.7778793  53.5882152  21.3896710
  34.0809246  52.3143728  20.9613524  29.3014400  55.6643228  28.2678627
  29.1558980  55.9783531  29.1602908  28.8239603  56.2828128  27.7149526
  31.1610783  52.6545776  28.3159516  31.1472351  51.7586869  27.9791814
  31.8783211  52.6616439  28.9497802  33.0136913  53.0883116  30.3612644
  32.7554691  54.0100187  30.3596974  32.4821954  52.6913550  31.0513108
  30.5647679  51.5360156  23.5847087  30.6863590  50.6076802  23.7837974
  30.2749721  51.5498842  22.6725402  33.4338869  49.2215066  26.7213806
  33.4560566  49.2854399  25.7665786  33.8506928  48.3819575  26.9154313
  30.0488758  53.0492153  37.7937019  30.0976914  53.9254276  37.4114789
  30.5911272  52.5069546  37.2208662  37.9445241  56.4256671  35.7030192
  38.8455104  56.2863136  35.4114189  38.0193216  56.5911126  36.6428369
  32.2788047  53.8023526  34.5483378  31.4091356  54.0957092  34.2765966
  32.5147527  54.3863971  35.2690641  34.9827080  50.0203143  32.0648798
  35.5009024  50.7564170  31.7395287  34.6282213  50.3267136  32.8995557
  26.5626018  54.8807824  20.1810204  25.8695263  54.9552179  19.5250240
  26.3177770  54.1168167  20.7031721  35.2339675  46.4403425  27.5849695
  35.5141428  45.7726614  28.2110121  36.0190281  46.6332521  27.0724359
  39.1048533  54.8621059  31.3321270  40.0565956  54.9619157  31.3533494
  38.9351983  54.0699328  31.8419354  37.1262912  51.9476642  31.5180671
  36.5312844  52.2281655  30.8227159  36.8412609  52.4370543  32.2897412
  33.4219942  56.9523232  16.4890774  34.3679046  56.8229440  16.5579192
  33.0434186  56.2137894  16.9660202  41.7331099  54.8738222  30.4921853
  41.2170148  54.0896679  30.3051782  42.6171048  54.5456939  30.6568372
  39.3941826  48.6179238  26.4517665  39.1966647  48.3094326  27.3360997
  40.0041532  49.3440877  26.5815595  31.6062859  54.8773208  16.4245659
  30.6994314  54.5806321  16.5008372  31.8838840  54.5803026  15.5579945
  33.2224924  49.4210098  22.5789900  32.4125653  49.0757183  22.9545146
  33.9109341  49.1117642  23.1677512  35.1515473  48.4988145  24.2014197
  35.7046511  48.9183598  24.8604220  35.3885559  47.5723893  24.2437153
  31.1748572  54.4875218  39.9816961  31.0745299  55.4369575  39.9129052
  30.9570114  54.1593457  39.1093031  30.3761643  51.7360143  16.5657638
  31.2380807  52.0615042  16.8253455  30.5611987  50.9491639  16.0530704
  38.5294280  50.6088670  23.7092861  37.9492949  51.2673474  23.3270913
  38.2630212  49.7866014  23.2980279  36.9797846  50.0093728  25.9114181
  37.4797625  50.1210262  25.1028500  37.6233454  49.7054780  26.5514990
  37.3119158  52.7688760  22.7649209  36.4245013  53.0538411  22.5469404
  37.7273147  52.6082524  21.9176486  40.6633694  52.7935281  26.4803549
  41.4394084  53.2831734  26.7528165  39.9381828  53.2193335  26.9375418
  43.1006253  53.5062900  27.5377489  43.6950743  53.2658636  26.8270797
  43.1732836  52.7870031  28.1651025  37.2860182  58.2843296  22.9799499
  37.2295383  58.7411848  22.1407132  37.8388524  57.5233981  22.8022342
  41.0964987  54.0733028  23.8049619  40.8401922  53.6729664  24.6357827
  40.4717856  54.7876822  23.6799758  31.3291086  48.9756186  19.8537347
  31.3169756  49.9198026  20.0105618  32.2214508  48.7926332  19.5596808
  35.1443206  45.5698963  24.1083284  34.3775602  45.0157450  24.2539966
  35.5553911  45.6420832  24.9697435  27.1484967  51.8583759  38.1988465
  28.0116428  51.5020564  38.4091790  26.5750378  51.5197654  38.8863869
  14.4752082   4.5071985  15.7296173  15.1130492   4.3878732  15.0259513
  14.3572924   5.4552829  15.7884125  11.2841788   4.4599413  15.6657697
  10.9460299   4.3440478  14.7778232  12.1531556   4.0590578  15.6458704
  11.7661571   5.6134265  21.6243903  11.7550212   5.2187063  20.7524407
  11.9282210   4.8800337  22.2177674   8.4868832   8.3971376  20.5723087
   8.1958698   9.3017007  20.4569753   9.1225816   8.4387904  21.2867156
   9.4125039   5.7748225  17.1624447  10.0088611   5.5504247  16.4481410
   9.4700010   5.0332970  17.7649894  19.4301777   2.1698672  13.7082359
  20.1626949   1.5997889  13.9420189  18.6741133   1.7820272  14.1488865
  13.4458717   8.0832792  17.5672881  13.1459440   8.9857831  17.4588688
  13.1009777   7.8164975  18.4194033  16.8455861   0.6015332  15.2470318
  15.9372738   0.5330741  14.9529079  16.7943457   1.0787277  16.0752143
   8.4279497  14.8477112  10.5343848   8.3503527  15.7984937  10.6132329
   7.8241140  14.5022985  11.1918775  10.9196727   2.0204978  23.1905215
  10.1430061   2.5798898  23.1808080  11.5587290   2.5061761  23.7120085
  18.7117507  -1.1968229  17.0248192  18.0691887  -0.9035696  16.3787986
  18.2072436  -1.3115309  17.8301389   9.1743099   4.8290431  22.7523182
   9.9157783   5.3675475  22.4758006   8.4680084   5.4556720  22.9094734
  14.6498439   6.9719572  21.3495344  15.0581795   6.5301982  20.6049976
  13.9275700   6.3972199  21.6029537  11.0029509   1.9092178  18.7228901
  11.8490704   2.3331592  18.8663550  10.9428146   1.2525803  19.4167464
  14.9727253   7.5320762  15.1047633  14.3436116   7.6966476  14.4023700
  14.5852915   7.9462372  15.8758597  18.8516485   8.4675200  12.4591996
  18.1667523   8.8474101  11.9089030  18.9360334   9.0770527  13.1923944
  14.1528954  -0.4303453  20.3810074  13.9089886   0.3238607  19.8444350
  14.4288884  -0.0518106  21.2157321  16.1067417   6.1135159  19.0587340
  16.3184312   6.7566919  18.3821721  16.0597165   5.2797476  18.5909270
   7.4179296   6.8166652  15.3077481   7.9880653   7.2453920  14.6694965
   8.0087408   6.5349237  16.0061667  17.2213245   8.9907115  17.2309697
  18.0430688   8.5887302  16.9492379  17.2175648   8.8875349  18.1825813
  10.9869848   8.5391158  19.3870408  11.0514281   9.0011565  20.2228580
  10.2780772   7.9088523  19.5152718  25.3119238   5.3345863  13.5794669
  24.5582946   4.7653261  13.4238673  25.4466779   5.3008527  14.5265303
  12.3286342  10.8282832  23.3849730  11.8850196  10.0419210  23.0670635
  12.9903556  11.0161982  22.7193621   7.0873463  12.3578633  17.9110409
   7.6380888  12.2295697  17.1387403   6.2484939  12.6573522  17.5605301
  14.4267580  11.1085632  21.4131131  14.4086056  11.9294513  20.9211401
  15.3487500  10.9839707  21.6381273  10.8840634   8.6229761  22.2554640
  11.4168971   7.8618049  22.0253948  10.3554715   8.3303413  22.9978794
  17.2286193   5.9464774  14.8840498  16.5709868   6.6364036  14.9720627
  18.0326592   6.3361206  15.2274484  16.8053448   9.2815148  11.0623582
  16.3515775   8.4406058  11.1188773  16.1747415   9.9176547  11.3998363
  15.2486387  11.1191645  11.9973401  15.5409362  11.6796702  11.2785766
  15.7585008  11.4120206  12.7526560  10.2120013  11.8971996  13.0866854
  10.1696191  12.1232842  12.1575386  11.1282711  11.6635371  13.2352655
  13.6585646   2.3656064  19.9847483  14.0135034   2.5927537  20.8441949
  14.3057778   2.6974440  19.3624738  19.4152763   7.5551027  15.7008084
  19.8489270   7.4626316  16.5491138  20.1284344   7.5308527  15.0628100
  13.1480658  11.1553121  17.2341184  13.2017680  11.7244057  18.0018900
  12.2795439  11.3255006  16.8695221  20.2768312   7.5974727  18.2340969
  20.4704203   8.5020538  18.4800244  20.1768931   7.1382146  19.0679554
  15.3383421   7.7481470  23.8081850  15.1868928   7.5192022  22.8911933
  15.3288101   8.7052071  23.8213195  12.1068758   5.3213383  18.7928116
  13.0360818   5.4724542  18.6197083  11.6859788   5.4097403  17.9376763
  10.9057089   9.3464047  16.5626654  10.7668175   8.9782831  17.4352592
  10.1171686   9.8611687  16.3910611  12.4562304   8.7245650  13.9515491
  12.1212137   8.6846420  14.8473141  11.9566250   8.0590366  13.4785902
   9.0588849   3.8433239  18.9651752   9.7688468   3.2026431  18.9238371
   9.0158157   4.0946134  19.8877933  17.0475628  10.7800592  21.8858331
  16.9888174  10.0959813  21.2188914  17.4495146  11.5219582  21.4338957
   6.0666327  17.5962506  14.6792050   6.3062925  18.2281030  15.3571069
   5.2235523  17.2450546  14.9657410  17.0493035   8.7440176  20.1172311
  16.1619814   8.4066098  20.2398710  17.6191586   8.0123208  20.3541076
  10.5794188  13.4041629  17.0833554  10.5064360  14.2096600  17.5952859
  10.1371582  13.6033595  16.2581576  10.3683968  12.6413399  10.5936376
   9.5851490  13.1835079  10.6874600  11.0676713  13.1587378  10.9930617
  21.5310376   4.1548394  14.8788873  21.5200252   5.0373109  14.5082806
  20.6627755   3.8019945  14.6843410  13.0392872  13.3028463  19.2391713
  13.7520844  13.9375928  19.1667614  12.5482901  13.3992329  18.4231715
   8.0904785  11.0522906  20.0597284   8.7914245  11.6859389  20.2126678
   7.6199900  11.3937638  19.2992923  15.8906071   3.6067514  17.8849834
  15.2377522   3.8543421  17.2302287  16.2686451   2.7931652  17.5512311
  12.8513245  13.6427207  11.9878004  13.0335640  12.8248863  12.4505757
  13.6746231  13.8594899  11.5502894  11.9393644   4.3487325  24.3715871
  11.2634282   4.2481454  25.0418246  12.7621278   4.1926539  24.8351868
   3.6872504  10.5859261  16.9928386   4.2725940   9.8402949  17.1256291
   3.4897342  10.8963218  17.8765050   6.5411159  13.6210509  12.0090829
   5.8721534  14.1056636  11.5254869   6.4024028  13.8679729  12.9234207
  10.6816427  15.6554252  18.6073487  11.2334735  15.8185874  19.3722572
  11.0222621  16.2458690  17.9353512  15.5327302  10.4815510  24.4622142
  16.0767206  11.0945468  23.9677096  14.9514147  11.0395088  24.9789155
  13.8184815  13.6036228  15.5937169  13.6935954  12.8025968  15.0848115
  14.4763906  14.0982421  15.1051139  15.8819723  11.4045248  17.2216719
  14.9350059  11.2850599  17.1495046  16.2302496  10.5167746  17.3042981
  12.8866156  11.1997964  13.4221072  12.7391119  10.2714671  13.6028642
  13.7119650  11.2218055  12.9378147  16.4900278  12.0226523  14.5085944
  17.4146826  11.8169384  14.3710396  16.3215582  11.7742924  15.4175286
  16.2795594  12.5412190   9.8648036  16.4532472  11.9758613   9.1121888
  16.7724486  13.3413085   9.6827526  22.1334986   5.3048613  11.4838336
  22.5766132   4.5555938  11.0857459  21.2561496   5.2958750  11.1012068
  10.8282239  13.2212734  20.6222142  11.1369365  12.9761881  21.4944841
  11.6257721  13.4259372  20.1341012  10.8502851  15.3750643  12.8527518
  10.4107841  14.8827022  13.5460375  11.6010968  14.8323611  12.6119593
   8.2976723  10.9188653  14.9249820   7.6756732  10.2559358  14.6252048
   8.9681590  10.9449784  14.2423468  18.8556096   9.9411564  23.7983463
  18.0651640   9.9235703  23.2587962  18.6189451  10.4799857  24.5532499
  18.9753971   6.7904030  21.1116191  19.0251976   6.6254038  22.0531714
  18.8667894   5.9231289  20.7214072  16.2657734   2.7734958  22.4275498
  17.1667596   2.6341423  22.1359496  16.3405708   2.9389413  23.3673676
  20.4772168   9.2100972  21.3558213  20.1856976   9.5730952  22.1921674
  19.8644299   8.4967980  21.1771545  21.6767850   6.7753851  13.8760783
  22.5114742   7.2143656  14.0398344  21.8126979   6.2992505  13.0569029
  18.7259356   4.3333586  19.8238271  19.2013478   4.5261233  19.0157122
  17.8024922   4.3892772  19.5781655  17.4261025   1.2099346  18.0566577
  18.3778448   1.3097444  18.0778801  17.2564476   0.4177615  18.5664661
  15.4475405  -1.7045070  18.2425977  14.8525337  -1.4240058  17.5472466
  15.1625101  -1.2151169  19.0142719  19.9049103   4.4305466  17.1708876
  19.8725423   3.4921467  17.3568560  20.5149727   4.5089503  16.4374701
  20.0543591   1.2216510  17.2167159  19.5382640   0.4374966  17.0297088
  20.9383540   0.8935226  17.3813679  25.7225653   5.4921473  16.3114913
  26.4529041   5.2306761  16.8722616  25.1132598   4.7550195  16.3516981
  23.8040950   3.6329336  16.9089364  23.0774114   3.4985300  16.3005856
  23.3888237   3.9406164  17.7146082  11.6271126   7.3519265  24.6736737
  12.5474136   7.5297864  24.8676784  11.5920709   6.4075311  24.5216436
   9.3592334   4.2650644  25.5227329   8.8759416   5.0651005  25.7291218
   9.4453273   4.2758589  24.5694773   5.2865672   8.1555179  17.5595763
   6.2408925   8.1239121  17.4925694   5.0878195   7.6945803  18.3745989
   5.8765054   6.7256295  20.1266560   6.6957943   7.2200374  20.1501398
   6.1501862   5.8088263  20.0984128  21.4218745  -0.1458812  14.2622796
  22.0163236  -0.3863076  13.5516104  21.4945329  -0.8651682  14.8896332
   3.6415901  13.6974799  14.5765961   3.5070368  12.9375200  14.0103959
   3.2247963  14.4215699  14.1094750  23.7289818   3.1607389  13.0366217
  23.1689376   3.2300578  13.8097779  23.1233321   2.9848373  12.3165713
   6.7985026  14.5944116  14.7884403   6.6817411  15.5389548  14.6863094
   5.9777473  14.2917677  15.1770202  13.6553360   8.1275277  26.3250898
  14.5244520   8.3015929  25.9637533  13.1760112   8.9469693  26.2026627
   7.8239541  15.2472378  18.0040332   8.7266787  15.2795988  18.3206827
   7.5976911  14.3172829  18.0186667   9.5793143  14.0003364  14.6650410
   8.6288774  14.0005226  14.5514783   9.8825629  13.2536099  14.1486445
  25.3145836  19.8363903  15.7296173  25.9524246  19.7170650  15.0259513
  25.1966679  20.7844746  15.7884125  22.1235542  19.7891331  15.6657697
  21.7854054  19.6732395  14.7778232  22.9925311  19.3882496  15.6458704
  17.9822358  21.6426807  11.6554588  17.4187223  21.5516744  10.8870876
  17.8674753  20.8226711  12.1357081  22.6055325  20.9426182  21.6243903
  22.5943966  20.5478981  20.7524407  22.7675965  20.2092255  22.2177674
  15.5286790  23.1377999  14.4938809  16.3208082  22.7968823  14.0785108
  15.7683440  23.2472974  15.4140962  23.5621917  25.3097775   6.9669053
  22.9109897  25.8951855   6.5803067  24.3566280  25.8403970   7.0264091
  17.4877544  22.3986912   7.3656188  18.2608420  21.8515899   7.2269063
  17.8402943  23.2631161   7.5770649  20.2518793  21.1040143  17.1624447
  20.8482366  20.8796165  16.4481410  20.3093765  20.3624888  17.7649894
  19.8243822  18.5579578   4.9974638  20.0769342  18.0361099   4.2358101
  18.8868381  18.3945723   5.1001321  24.8687105  17.5615356  12.8049381
  25.6550194  17.1434780  12.4539798  25.1325809  18.4661449  12.9731029
  25.0397182  22.9988207   7.5038038  24.4043015  23.0722833   8.2158942
  24.7094588  23.5881805   6.8257117  30.2695532  17.4990590  13.7082359
  31.0020704  16.9289806  13.9420189  29.5134887  17.1112190  14.1488865
  19.5440110  20.4607684   7.1999012  19.4276369  19.7852587   7.8680097
  19.6542370  19.9740058   6.3831166  21.8871651  19.9217831  10.9045702
  21.5229859  19.3948452  11.6158623  22.7438767  19.5316300  10.7312187
  27.7920952  11.2112164  18.1676968  27.4604277  12.0807575  17.9438183
  27.1966565  10.8948448  18.8470998  21.5277138  14.9507731   5.9007050
  21.6951541  15.8187967   6.2677521  21.3374307  15.1135012   4.9768339
  24.2852472  23.4124710  17.5672881  23.9853195  24.3149748  17.4588688
  23.9403531  23.1456893  18.4194033  17.7364953  19.8638506  13.6009585
  16.8115450  19.7314721  13.8087277  17.9849366  20.6432726  14.0979527
  27.6849615  15.9307250  15.2470318  26.7766493  15.8622658  14.9529079
  27.6337211  16.4079195  16.0752143  21.5066359  17.4065388   6.8853717
  21.3865984  17.8522439   7.7239197  20.8118948  17.7550706   6.3267255
  15.0973764  19.5071780  14.4353374  15.2266145  19.7606259  15.3492786
  14.4171215  20.0999488  14.1158029  19.2673251  30.1769030  10.5343848
  19.1897281  31.1276855  10.6132329  18.6634895  29.8314902  11.1918775
  21.7590481  17.3496895  23.1905215  20.9823815  17.9090816  23.1808080
  22.3981044  17.8353678  23.7120085  29.5511262  14.1323688  17.0248192
  28.9085642  14.4256221  16.3787986  29.0466190  14.0176609  17.8301389
  27.2051425  17.8786861   7.7134051  28.1169282  18.1114248   7.5381749
  26.6961072  18.4623906   7.1509130  20.0136853  20.1582349  22.7523182
  20.7551538  20.6967393  22.4758006  19.3073839  20.7848638  22.9094734
  25.4892193  22.3011489  21.3495344  25.8975549  21.8593900  20.6049976
  24.7669455  21.7264117  21.6029537  21.8423263  17.2384096  18.7228901
  22.6884458  17.6623510  18.8663550  21.7821901  16.5817720  19.4167464
  25.8121008  22.8612680  15.1047633  25.1829870  23.0258394  14.4023700
  25.4246670  23.2754289  15.8758597  29.6910240  23.7967118  12.4591996
  29.0061278  24.1766019  11.9089030  29.7754089  24.4062444  13.1923944
  24.9922708  14.8988464  20.3810074  24.7483640  15.6530525  19.8444350
  25.2682639  15.2773812  21.2157321  26.9461171  21.4427077  19.0587340
  27.1578066  22.0858837  18.3821721  26.8990919  20.6089393  18.5909270
  24.5487400  14.0544897  15.9623912  23.6871879  14.3526151  16.2540650
  24.5749835  14.2715296  15.0304945  21.3648970  22.5987088  12.3697718
  21.8287315  22.8774791  11.5802340  21.1005768  21.6970533  12.1870808
  18.2573051  22.1458570  15.3077481  18.8274408  22.5745838  14.6694965
  18.8481163  21.8641154  16.0061667  20.3017856  18.7210240   9.1787283
  21.0041899  19.1731284   9.6461209  19.9698484  18.0794059   9.8067176
  18.7498217  17.3121997  23.5538492  18.1196878  17.9938278  23.7873889
  18.6434305  17.2005079  22.6091630  14.0443190  16.9793793  14.4804416
  13.2542244  17.2351322  14.0044527  14.5354437  17.7942131  14.5856457
  28.0606999  24.3199032  17.2309697  28.8824443  23.9179219  16.9492379
  28.0569402  24.2167266  18.1825813  15.9957935  17.3438372  11.4387893
  15.1989098  17.4557066  11.9571389  15.7683527  17.6825024  10.5728784
  12.3280893  17.2324283  16.9119407  12.5788931  18.1171293  17.1776983
  12.8640441  17.0528885  16.1394499  36.1512992  20.6637781  13.5794669
  35.3976701  20.0945179  13.4238673  36.2860533  20.6300445  14.5265303
  21.5411620  25.5351183   9.2549388  21.4057295  26.3802719   9.6834236
  22.0821433  25.7370461   8.4915322  18.0278960  11.6142763  25.9163743
  17.6345905  11.0608961  26.5911387  18.8445100  11.9253341  26.3070261
  14.9941018  23.0526621   9.8277313  15.5065538  23.8469871   9.9782878
  15.6463730  22.3552911   9.7610915  16.8035902  26.1692377  11.9100066
  16.9802531  27.0910342  11.7221050  17.5992736  25.8550796  12.3394446
  20.9446921  13.0300642  23.5084000  21.6856634  13.6307795  23.4288462
  21.1764844  12.2878280  22.9502042  16.0888259  18.2157009  21.7862230
  15.9741774  17.3142266  22.0869328  15.2332777  18.4620706  21.4347046
  24.8904084   9.0581745  17.7848282  24.5468353   9.9483387  17.7087392
  25.2583046   8.8683402  16.9217867  12.9589934  21.3815275  10.6036884
  13.7965156  21.7912284  10.3870591  13.1368202  20.4414717  10.5737078
  24.8554367  19.0490356   6.2920717  24.3400990  19.8194961   6.5309104
  24.5831675  18.3755492   6.9153778  22.4401478  13.8940057  11.3505955
  21.5843074  13.5046907  11.1711594  22.8528429  13.9732018  10.4905741
  23.9700624  11.4286400  15.7497515  23.4665420  11.3916535  14.9365320
  24.2631231  12.3379143  15.8094171  20.2143510  11.5125130  14.7563696
  21.0796507  11.3167938  14.3969586  20.2821019  11.2835481  15.6833053
  29.8288641  21.8022711   8.2273890  29.0518083  21.4633870   7.7829052
  30.5080122  21.8075334   7.5528855  24.6440670  16.9217448   8.1180498
  24.3390805  17.2363597   8.9690641  25.5971112  16.9998868   8.1607831
  23.0887102  23.0807671   9.7673452  22.5608463  22.3460431   9.4546689
  22.5874604  23.8582348   9.5213420  28.0679948  21.2756692  14.8840498
  27.4103622  21.9655953  14.9720627  28.8720347  21.6653124  15.2274484
  17.8205829  13.7427338  12.1280063  18.3949581  13.5202519  11.3953256
  18.4076812  13.8116032  12.8808665  26.8785406  19.6301065  12.9344440
  27.3917288  20.2631056  13.4366150  27.5286630  19.0302260  12.5687800
  18.1475416  15.7731799   6.1475949  17.3112729  16.1106485   6.4685223
  18.0080186  15.6380778   5.2103086  20.1228497  10.6168587  10.8555133
  19.4692909  10.3017604  10.2311747  20.0808971   9.9944327  11.5814956
  21.2339702  20.8987882   2.7708425  20.3266763  20.6677135   2.9699574
  21.7310734  20.1025501   2.9582406  24.1407781  29.6085389   5.6905111
  23.4669479  29.9117086   6.2990069  24.5273603  30.4114469   5.3410568
  23.3566237  17.1050520  15.1802780  22.4388799  17.3265467  15.0224468
  23.7726381  17.1796831  14.3214488  24.1401285  18.5041936  10.3105461
  24.8873104  19.0163333  10.0012583  24.4092875  18.1825988  11.1709854
  22.4127935  21.0000476   7.2932415  21.5039154  20.7159509   7.3904885
  22.4423019  21.4199555   6.4335722  27.6447203  24.6107066  11.0623582
  27.1909530  23.7697976  11.1188773  27.0141169  25.2468464  11.3998363
  26.5880122  15.5399052  12.2924250  25.8502879  15.0276438  12.6234492
  26.8406896  15.0999434  11.4807527  26.0880142  26.4483563  11.9973401
  26.3803116  27.0088620  11.2785766  26.5978762  26.7412124  12.7526560
  26.6891749   8.3175304  12.8866019  26.9950626   7.4572667  12.5991934
  27.4144354   8.9092924  12.6865013  12.9816106  18.7205991  11.2747617
  12.7840505  18.1275351  10.5498684  12.4262770  18.4158201  11.9923556
  20.9612829  18.6129097  13.3942210  21.0161439  17.6602933  13.3184687
  20.1504031  18.7688536  13.8783509  22.1104023  22.5409220   4.6320493
  21.6723453  21.8245079   4.1726131  22.8514464  22.7685335   4.0705585
  18.9005189  17.2306157  11.1532589  18.0873055  17.5300327  11.5597781
  19.3964183  16.8361846  11.8707071  21.0513767  27.2263914  13.0866854
  21.0089946  27.4524760  12.1575386  21.9676466  26.9927288  13.2352655
  24.4979401  17.6947981  19.9847483  24.8528789  17.9219454  20.8441949
  25.1451532  18.0266358  19.3624738  30.2277138  20.8166417  10.6896812
  30.0895036  21.0068013   9.7618001  29.8713357  21.5785800  11.1464863
  18.3919264  14.8024512  16.7693824  19.0318643  14.6613271  16.0716787
  17.5596794  14.5159026  16.3932426  30.2546517  22.8842944  15.7008084
  30.6883024  22.7918233  16.5491138  30.9678098  22.8600445  15.0628100
  19.1679568  24.1026943  12.8828817  19.9620166  23.6077263  12.6811391
  18.4571260  23.5744806  12.5196522  23.9874412  26.4845038  17.2341184
  24.0411435  27.0535975  18.0018900  23.1189194  26.6546923  16.8695221
  15.4762331  18.2470025   8.9588569  14.5459919  18.1854480   9.1758531
  15.5719803  17.7245977   8.1625210  15.3947880  14.7724837  11.5466811
  15.6554698  15.6870171  11.4375971  16.2165053  14.3049280  11.6963424
  16.8672806  16.1862595  18.7165635  17.5395859  15.9779957  18.0678284
  16.0402592  15.9884681  18.2770868  31.1162067  22.9266645  18.2340969
  31.3097957  23.8312455  18.4800244  31.0162685  22.4674064  19.0679554
  22.7698378  12.8124535  20.7331296  22.1226293  13.5114485  20.6395773
  23.5399393  13.2460679  21.1007544  22.9462512  20.6505300  18.7928116
  23.8754572  20.8016460  18.6197083  22.5253542  20.7389321  17.9376763
  21.7450844  24.6755965  16.5626654  21.6061930  24.3074749  17.4352592
  20.9565440  25.1903604  16.3910611  22.3398996  29.7765061   7.9052190
  22.5150751  29.3053104   8.7197813  21.6531784  30.4030827   8.1333451
  23.2956059  24.0537567  13.9515491  22.9605892  24.0138337  14.8473141
  22.7960005  23.3882283  13.4785902  17.2700303  19.4605197  19.4768073
  17.1320101  18.7285436  20.0779612  18.1805226  19.3714098  19.1952260
  26.2315251  21.3993602   4.2252551  25.6144421  20.6740430   4.1285604
  25.7631739  22.1602962   3.8819625  19.8982604  19.1725157  18.9651752
  20.6082222  18.5318349  18.9238371  19.8551912  19.4238052  19.8877933
  18.6111538  16.1590375  20.7847392  18.0748895  15.7081113  21.4368988
  18.0228246  16.2936284  20.0417856  16.9060081  32.9254424  14.6792050
  17.1456679  33.5572948  15.3571069  16.0629278  32.5742464  14.9657410
  27.8886790  24.0732094  20.1172311  27.0013568  23.7358016  20.2398710
  28.4585341  23.3415125  20.3541076   9.5415937  20.4056186  13.4415362
  10.2286976  20.0917916  12.8536378   9.3864065  21.3097550  13.1682614
  14.3450659  15.2946382  17.8700386  14.2608848  14.6872052  17.1350796
  13.5233365  15.7855401  17.8709883  21.2077723  27.9705316  10.5936376
  20.4245244  28.5126997  10.6874600  21.9070468  28.4879296  10.9930617
  24.5174373  13.7799946  13.2370581  25.0143072  13.0269908  12.9171651
  23.7461354  13.8164263  12.6713791  32.3704130  19.4840311  14.8788873
  32.3594006  20.3665027  14.5082806  31.5021510  19.1311862  14.6843410
  25.6004153  22.5371633  10.8109005  24.6660432  22.6573096  10.6413709
  25.7780822  21.6344100  10.5469014  21.1009341  15.9217329  12.9642266
  20.7307129  15.3688369  13.6523171  21.5968434  15.3175462  12.4117266
  28.9876705  18.3788952  11.3459039  29.4537157  19.2116944  11.2719341
  29.4384205  17.9133934  12.0504297  27.0552936  24.7232774   8.3445191
  27.3312780  24.6089368   9.2539065  26.1857435  24.3250259   8.3057364
  26.9593367  10.7469539  15.3849940  26.0456447  10.9773766  15.5532147
  27.3886469  10.8307983  16.2363972  26.7299826  18.9359431  17.8849834
  26.0771276  19.1835339  17.2302287  27.1080206  18.1223570  17.5512311
  23.6907000  28.9719125  11.9878004  23.8729394  28.1540780  12.4505757
  24.5139986  29.1886817  11.5502894  24.0249165  27.8987310   9.2493053
  24.5536932  27.3879764   8.6363215  24.2877385  27.5829840  10.1138586
  22.7787399  19.6779242  24.3715871  22.1028036  19.5773372  25.0418246
  23.6015033  19.5218456  24.8351868  14.5266258  25.9151179  16.9928386
  15.1119695  25.1694867  17.1256291  14.3291097  26.2255136  17.8765050
  17.3804913  28.9502426  12.0090829  16.7115289  29.4348554  11.5254869
  17.2417783  29.1971647  12.9234207   9.1183913  18.4856779  15.7132830
   9.1568012  17.9520370  16.5069948   8.6124206  17.9591985  15.0943807
  16.4974675  13.3321320  19.2095372  16.5616002  14.1936151  18.7972770
  16.4341795  12.7195321  18.4767730  15.9726948  15.4044452  22.8568406
  16.5998986  15.0221530  23.4705930  15.1154866  15.1858654  23.2224099
  12.7492490  17.2120881   8.7886761  13.0445931  16.3031560   8.7353815
  11.8480526  17.1908621   8.4667763  24.6578569  28.9328145  15.5937169
  24.5329709  28.1317885  15.0848115  25.3157660  29.4274339  15.1051139
  16.2786737  15.2876878  14.7714310  15.5573323  15.9012846  14.6321783
  17.0679993  15.8234643  14.6930956  26.7213478  26.7337166  17.2216719
  25.7743813  26.6142517  17.1495046  27.0696251  25.8459664  17.3042981
  19.0813051  12.6231304  21.0454961  19.6047453  12.8693601  21.8081271
  18.8625384  13.4551339  20.6258099  14.4780332  14.8934979   8.9126086
  14.1493038  14.0132358   8.7301192  14.8319703  14.8382648   9.8002475
  23.7259911  26.5289882  13.4221072  23.5784873  25.6006589  13.6028642
  24.5513404  26.5509972  12.9378147  17.5922155  15.1807949   9.2801564
  17.9318228  15.7093870   8.5580172  18.0394276  15.5188355  10.0560130
  27.3294033  27.3518440  14.5085944  28.2540580  27.1461302  14.3710396
  27.1609336  27.1034842  15.4175286  20.2865596  13.5645000  18.7304632
  19.9462416  12.7652813  19.1325312  19.5804602  13.8646710  18.1581465
  20.9382068  10.6494312  17.1831955  21.7608137  10.1754790  17.0610845
  21.1820131  11.4284796  17.6830641  19.5790302  13.6782570   7.4794857
  20.2998665  14.0563823   6.9758573  18.9555606  14.3971447   7.5829835
  23.7221425  14.3827719   8.4153189  23.9385040  15.2652357   8.1142017
  23.2415492  13.9913933   7.6858831  18.4620647  17.3413433  14.9923934
  18.3165227  17.6553736  15.8848215  17.9845850  17.9598333  14.4394832
  20.3217029  14.3315981  15.0404823  20.3078598  13.4357074  14.7037121
  21.0389458  14.3386644  15.6743109  22.1743160  14.7653321  17.0857951
  21.9160938  15.6870391  17.0842281  21.6428200  14.3683755  17.7758415
  27.1189349  27.8704108   9.8648036  27.2926226  27.3050530   9.1121888
  27.6118240  28.6705003   9.6827526  12.9366309  19.8818777  17.9311595
  12.3919777  20.6578585  18.0631869  13.8145659  20.2289581  17.7730716
  19.7253925  13.2130361  10.3092393  19.8469837  12.2847007  10.5083281
  19.4355968  13.2269047   9.3970709  22.5945116  10.8985271  13.4459113
  22.6166813  10.9624604  12.4911093  23.0113175  10.0589780  13.6399619
  32.9728740  20.6340531  11.4838336  33.4159886  19.8847856  11.0857459
  32.0955250  20.6250667  11.1012068  28.1064521  27.1870872   6.9644934
  28.8015426  27.8077565   7.1832249  28.4487671  26.3366224   7.2397312
  13.7232331  19.0088673  20.8241752  12.9814067  19.1571309  21.4106382
  13.4025075  19.2696939  19.9608501  30.0055944  24.6370578   8.4932265
  30.5307269  24.9757851   7.7681585  29.9178297  23.7017593   8.3095400
  21.6896605  30.7042561  12.8527518  21.2501596  30.2118940  13.5460375
  22.4404722  30.1615529  12.6119593  14.1688944  26.8954102  12.8552146
  14.9946964  26.5957874  12.4750790  13.8182996  26.1261724  13.3041935
  19.1370477  26.2480570  14.9249820  18.5150487  25.5851275  14.6252048
  19.8075344  26.2741702  14.2423468  12.3697549  24.8140428  13.8141080
  11.5329458  24.3862603  13.6325081  12.3421195  25.0072872  14.7511871
  19.2095005  14.7262358  24.5182326  19.2583160  15.6024481  24.1360095
  19.7517519  14.1839751  23.9453969  29.8147726  22.1195948  21.1116191
  29.8645731  21.9545955  22.0531714  29.7061649  21.2523207  20.7214072
  18.6983984  24.7984494   8.4008280  18.8472105  25.4819958   7.7474953
  19.5050428  24.7789584   8.9157736  27.1051488  18.1026876  22.4275498
  28.0061351  17.9633341  22.1359496  27.1799462  18.2681331  23.3673676
  21.4394293  15.4793731  21.2728684  20.5697603  15.7727297  21.0011273
  21.6753774  16.0634176  21.9935948  32.5161605  22.1045769  13.8760783
  33.3508496  22.5435573  14.0398344  32.6520734  21.6284422  13.0569029
  29.5653111  19.6625504  19.8238271  30.0407232  19.8553150  19.0157122
  28.6418676  19.7184690  19.5781655  16.4536617  20.8249671   9.4069349
  16.2082659  19.9212001   9.6049559  16.6232532  20.8266822   8.4648827
  24.1433327  11.6973348  18.7894105  24.6615271  12.4334374  18.4640593
  23.7888460  12.0037341  19.6240864  15.7232265  16.5578029   6.9055511
  15.0301510  16.6322384   6.2495547  15.4784017  15.7938372   7.4277028
  24.3945921   8.1173630  14.3095001  24.6747675   7.4496819  14.9355428
  25.1796528   8.3102726  13.7969665  22.1979390  27.2932624   5.8720028
  21.6253357  27.9122811   5.4190500  22.7712183  27.8431986   6.4059950
  28.2654780  16.5391264  18.0566577  29.2172203  16.6389362  18.0778801
  28.0958230  15.7469533  18.5664661  26.2869159  13.6246847  18.2425977
  25.6919091  13.9051860  17.5472466  26.0018856  14.1140748  19.0142719
  25.4176650  27.5769774   7.0028610  26.3507323  27.5115336   7.2061486
  25.3299862  28.4126041   6.5443143  28.0464666  26.8935644   3.9632558
  27.9678298  26.5595508   4.8568316  28.8674333  27.3857412   3.9624030
  30.7442857  19.7597384  17.1708876  30.7119178  18.8213385  17.3568560
  31.3543481  19.8381420  16.4374701  22.5826188  18.6293437   3.2136080
  23.5285293  18.4999645   3.2824498  22.2040433  17.8908099   3.6905508
  30.8937346  16.5508427  17.2167159  30.3776395  15.7666884  17.0297088
  31.7777294  16.2227144  17.3813679  28.5548073  10.2949443  13.1762972
  28.3572894   9.9864531  14.0606304  29.1647778  11.0211082  13.3060902
  36.5619407  20.8213391  16.3114913  37.2922796  20.5598679  16.8722616
  35.9526353  20.0842113  16.3516981  34.6434704  18.9621253  16.9089364
  33.9167868  18.8277218  16.3005856  34.2281991  19.2698082  17.7146082
  11.6847046  17.8749777  13.5990012  11.3649830  17.0215085  13.3064386
  11.1380474  18.0898355  14.3547979  15.4626953  20.5912218  17.3159518
  15.6812963  21.5229325  17.3347552  15.8752727  20.2320192  18.1014322
  22.3831171  11.0980303   9.3035207  21.5731900  10.7527388   9.6790453
  23.0715588  10.7887847   9.8922818  24.3121719  10.1758350  10.9259503
  24.8652758  10.5953803  11.5849527  24.5491806   9.2494098  10.9682459
  20.3354819  16.1645423  26.7062267  20.2351546  17.1139780  26.6374358
  20.1176361  15.8363662  25.8338337  11.5535306  21.4952688  15.5683133
  10.8598777  21.0806641  15.0553088  12.3008297  21.5373225  14.9716552
  27.6900527  12.2858875  10.4338168  27.1099196  12.9443679  10.0516220
  27.4236459  11.4636219  10.0225585  26.1404093  11.6863933  12.6359488
  26.6403871  11.7980467  11.8273807  26.7839701  11.3824985  13.2760296
  20.1986089  19.5942562  25.5227329  19.7153170  20.3942922  25.7291218
  20.2847028  19.6050507  24.5694773  13.4672048  21.4270942  13.4449148
  13.4442736  21.5258629  12.4931031  13.7772685  22.2736093  13.7666314
  16.1259426  23.4847097  17.5595763  17.0802680  23.4531039  17.4925694
  15.9271950  23.0237721  18.3745989  16.7158808  22.0548213  20.1266560
  17.5351697  22.5492292  20.1501398  16.9895616  21.1380181  20.0984128
  26.4725405  14.4458965   9.4894516  25.5851260  14.7308616   9.2714711
  26.8879394  14.2852729   8.6421793  29.8239941  14.4705486  13.2048855
  30.6000331  14.9601939  13.4773472  29.0988075  14.8963540  13.6620725
  32.2612499  15.1833105  14.2622796  32.8556990  14.9428841  13.5516104
  32.3339083  14.4640236  14.8896332  14.4809655  29.0266716  14.5765961
  14.3464123  28.2667117  14.0103959  14.0641717  29.7507616  14.1094750
  25.6168618  24.2103640   3.5842536  26.3204468  24.4153642   4.2000192
  24.8931267  24.7780402   3.8491619  26.4466428  19.9613501   9.7044806
  26.3901630  20.4182053   8.8652439  26.9994771  19.2004186   9.5267649
  30.2571234  15.7503233  10.5294926  30.0008168  15.3499869  11.3603133
  29.6324102  16.4647027  10.4045065  34.5683572  18.4899306  13.0366217
  34.0083130  18.5592496  13.8097779  33.9627075  18.3140291  12.3165713
  17.6378781  29.9236033  14.7884403  17.5211165  30.8681466  14.6863094
  16.8171227  29.6209595  15.1770202  27.5255315  24.6486169   5.6340996
  28.3600919  24.2167368   5.4518471  27.3639658  24.4768183   6.5617890
  27.1801208  21.1518282   6.9997335  27.1250011  20.9862554   6.0585779
  26.5547263  21.8594315   7.1559525  11.9693723  16.3886347  20.8258757
  12.6152586  15.8785301  21.3145983  11.7610874  17.1255028  21.4002183
  20.4186897  29.3295282  14.6650410  19.4682528  29.3297143  14.5514783
  20.7219383  28.5828016  14.1486445  24.3049453   7.2469168  10.8328590
  23.5381848   6.6927655  10.9785273  24.7160158   7.3191037  11.6942742
  16.3091214  13.5353964  24.9233772  17.1722675  13.1790769  25.1337096
  15.7356624  13.1967859  25.6109176  36.1539591  35.1655820  15.7296173
  36.7918000  35.0462568  15.0259513  36.0360433  36.1136664  15.7884125
  32.9629297  35.1183248  15.6657697  32.6247808  35.0024313  14.7778232
  33.8319065  34.7174413  15.6458704  28.8216113  36.9718725  11.6554588
  28.2580978  36.8808662  10.8870876  28.7068508  36.1518629  12.1357081
  33.4449080  36.2718100  21.6243903  33.4337721  35.8770898  20.7524407
  33.6069719  35.5384173  22.2177674  26.3680544  38.4669916  14.4938809
  27.1601836  38.1260741  14.0785108  26.6077195  38.5764891  15.4140962
  34.4015671  40.6389692   6.9669053  33.7503651  41.2243773   6.5803067
  35.1960034  41.1695887   7.0264091  28.3271298  37.7278830   7.3656188
  29.1002174  37.1807817   7.2269063  28.6796697  38.5923079   7.5770649
  30.1656341  39.0555212  20.5723087  29.8746207  39.9600843  20.4569753
  30.8013325  39.0971739  21.2867156  31.0912548  36.4332060  17.1624447
  31.6876120  36.2088083  16.4481410  31.1487519  35.6916806  17.7649894
  30.6637576  33.8871496   4.9974638  30.9163097  33.3653017   4.2358101
  29.7262135  33.7237641   5.1001321  35.7080859  32.8907274  12.8049381
  36.4943948  32.4726697  12.4539798  35.9719563  33.7953366  12.9731029
  35.8790936  38.3280124   7.5038038  35.2436769  38.4014751   8.2158942
  35.5488343  38.9173723   6.8257117  41.1089286  32.8282507  13.7082359
  41.8414458  32.2581724  13.9420189  40.3528642  32.4404108  14.1488865
  30.3833865  35.7899602   7.1999012  30.2670123  35.1144505   7.8680097
  30.4936125  35.3031976   6.3831166  32.7265406  35.2509749  10.9045702
  32.3623613  34.7240370  11.6158623  33.5832522  34.8608218  10.7312187
  38.6314707  26.5404081  18.1676968  38.2998031  27.4099492  17.9438183
  38.0360320  26.2240365  18.8470998  32.3670893  30.2799648   5.9007050
  32.5345295  31.1479885   6.2677521  32.1768062  30.4426930   4.9768339
  35.1246226  38.7416627  17.5672881  34.8246949  39.6441666  17.4588688
  34.7797286  38.4748811  18.4194033  28.5758708  35.1930424  13.6009585
  27.6509204  35.0606638  13.8087277  28.8243121  35.9724643  14.0979527
  38.5243370  31.2599168  15.2470318  37.6160247  31.1914576  14.9529079
  38.4730966  31.7371112  16.0752143  32.3460114  32.7357306   6.8853717
  32.2259739  33.1814357   7.7239197  31.6512702  33.0842624   6.3267255
  25.9367519  34.8363698  14.4353374  26.0659900  35.0898177  15.3492786
  25.2564970  35.4291406  14.1158029  30.1067006  45.5060948  10.5343848
  30.0291036  46.4568773  10.6132329  29.5028649  45.1606820  11.1918775
  32.5984236  32.6788813  23.1905215  31.8217570  33.2382733  23.1808080
  33.2374799  33.1645596  23.7120085  40.3905016  29.4615606  17.0248192
  39.7479396  29.7548139  16.3787986  39.8859945  29.3468526  17.8301389
  38.0445180  33.2078779   7.7134051  38.9563036  33.4406166   7.5381749
  37.5354827  33.7915823   7.1509130  30.8530608  35.4874266  22.7523182
  31.5945292  36.0259310  22.4758006  30.1467593  36.1140555  22.9094734
  36.3285948  37.6303407  21.3495344  36.7369304  37.1885817  20.6049976
  35.6063209  37.0556034  21.6029537  32.6817018  32.5676014  18.7228901
  33.5278213  32.9915427  18.8663550  32.6215655  31.9109638  19.4167464
  36.6514762  38.1904598  15.1047633  36.0223625  38.3550312  14.4023700
  36.2640424  38.6046207  15.8758597  40.5303994  39.1259035  12.4591996
  39.8455032  39.5057937  11.9089030  40.6147843  39.7354362  13.1923944
  35.8316463  30.2280382  20.3810074  35.5877395  30.9822443  19.8444350
  36.1076393  30.6065730  21.2157321  37.7854926  36.7718994  19.0587340
  37.9971821  37.4150754  18.3821721  37.7384674  35.9381311  18.5909270
  35.3881155  29.3836815  15.9623912  34.5265634  29.6818069  16.2540650
  35.4143589  29.6007214  15.0304945  32.2042724  37.9279006  12.3697718
  32.6681070  38.2066709  11.5802340  31.9399522  37.0262450  12.1870808
  29.0966805  37.4750487  15.3077481  29.6668162  37.9037756  14.6694965
  29.6874917  37.1933072  16.0061667  31.1411610  34.0502158   9.1787283
  31.8435653  34.5023202   9.6461209  30.8092239  33.4085977   9.8067176
  29.5891972  32.6413915  23.5538492  28.9590632  33.3230195  23.7873889
  29.4828060  32.5296996  22.6091630  24.8836944  32.3085711  14.4804416
  24.0935998  32.5643239  14.0044527  25.3748191  33.1234049  14.5856457
  38.9000754  39.6490950  17.2309697  39.7218197  39.2471137  16.9492379
  38.8963157  39.5459184  18.1825813  26.8351689  32.6730290  11.4387893
  26.0382853  32.7848984  11.9571389  26.6077282  33.0116942  10.5728784
  32.6657357  39.1974993  19.3870408  32.7301790  39.6595400  20.2228580
  31.9568281  38.5672358  19.5152718  23.1674647  32.5616201  16.9119407
  23.4182685  33.4463211  17.1776983  23.7034195  32.3820803  16.1394499
  46.9906747  35.9929698  13.5794669  46.2370455  35.4237096  13.4238673
  47.1254288  35.9592363  14.5265303  32.3805375  40.8643101   9.2549388
  32.2451050  41.7094636   9.6834236  32.9215187  41.0662378   8.4915322
  25.8334772  38.3818539   9.8277313  26.3459293  39.1761789   9.9782878
  26.4857485  37.6844829   9.7610915  27.6429657  41.4984295  11.9100066
  27.8196285  42.4202260  11.7221050  28.4386490  41.1842714  12.3394446
  34.0073851  41.4866667  23.3849730  33.5637705  40.7003046  23.0670635
  34.6691065  41.6745818  22.7193621  28.7660972  43.0162469  17.9110409
  29.3168397  42.8879532  17.1387403  27.9272448  43.3157358  17.5605301
  36.1055089  41.7669467  21.4131131  36.0873565  42.5878348  20.9211401
  37.0275009  41.6423542  21.6381273  32.5628143  39.2813597  22.2554640
  33.0956480  38.5201885  22.0253948  32.0342224  38.9887248  22.9978794
  35.7297838  24.3873663  17.7848282  35.3862108  25.2775304  17.7087392
  36.0976801  24.1975320  16.9217867  23.7983689  36.7107193  10.6036884
  24.6358911  37.1204201  10.3870591  23.9761957  35.7706635  10.5737078
  35.6948121  34.3782274   6.2920717  35.1794744  35.1486878   6.5309104
  35.4225429  33.7047410   6.9153778  33.2795232  29.2231974  11.3505955
  32.4236828  28.8338825  11.1711594  33.6922184  29.3023935  10.4905741
  34.8094379  26.7578318  15.7497515  34.3059174  26.7208453  14.9365320
  35.1024986  27.6671060  15.8094171  31.0537265  26.8417047  14.7563696
  31.9190261  26.6459856  14.3969586  31.1214774  26.6127399  15.6833053
  40.6682395  37.1314628   8.2273890  39.8911838  36.7925788   7.7829052
  41.3473876  37.1367251   7.5528855  35.4834424  32.2509366   8.1180498
  35.1784560  32.5655515   8.9690641  36.4364866  32.3290786   8.1607831
  33.9280856  38.4099589   9.7673452  33.4002218  37.6752349   9.4546689
  33.4268359  39.1874265   9.5213420  38.9073702  36.6048610  14.8840498
  38.2497377  37.2947871  14.9720627  39.7114101  36.9945041  15.2274484
  28.6599584  29.0719255  12.1280063  29.2343336  28.8494437  11.3953256
  29.2470566  29.1407950  12.8808665  37.7179161  34.9592982  12.9344440
  38.2311043  35.5922974  13.4366150  38.3680385  34.3594178  12.5687800
  28.9869171  31.1023716   6.1475949  28.1506483  31.4398403   6.4685223
  28.8473940  30.9672696   5.2103086  30.9622251  25.9460504  10.8555133
  30.3086664  25.6309521  10.2311747  30.9202726  25.3236245  11.5814956
  32.0733456  36.2279799   2.7708425  31.1660518  35.9969053   2.9699574
  32.5704488  35.4317419   2.9582406  34.1959992  32.4342438  15.1802780
  33.2782553  32.6557385  15.0224468  34.6120135  32.5088748  14.3214488
  34.9795040  33.8333853  10.3105461  35.7266858  34.3455251  10.0012583
  35.2486629  33.5117906  11.1709854  33.2521690  36.3292394   7.2932415
  32.3432909  36.0451427   7.3904885  33.2816773  36.7491473   6.4335722
  38.4840957  39.9398984  11.0623582  38.0303284  39.0989894  11.1188773
  37.8534924  40.5760382  11.3998363  37.4273877  30.8690970  12.2924250
  36.6896633  30.3568356  12.6234492  37.6800650  30.4291351  11.4807527
  36.9273896  41.7775480  11.9973401  37.2196871  42.3380537  11.2785766
  37.4372517  42.0704041  12.7526560  37.5285504  23.6467222  12.8866019
  37.8344381  22.7864585  12.5991934  38.2538109  24.2384842  12.6865013
  23.8209860  34.0497908  11.2747617  23.6234260  33.4567269  10.5498684
  23.2656524  33.7450118  11.9923556  31.8006584  33.9421015  13.3942210
  31.8555194  32.9894851  13.3184687  30.9897786  34.0980454  13.8783509
  32.9497777  37.8701138   4.6320493  32.5117207  37.1536997   4.1726131
  33.6908218  38.0977253   4.0705585  29.7398944  32.5598075  11.1532589
  28.9266809  32.8592245  11.5597781  30.2357938  32.1653763  11.8707071
  31.8907522  42.5555831  13.0866854  31.8483700  42.7816678  12.1575386
  32.8070220  42.3219206  13.2352655  35.3373155  33.0239899  19.9847483
  35.6922543  33.2511372  20.8441949  35.9845287  33.3558276  19.3624738
  41.0670892  36.1458335  10.6896812  40.9288791  36.3359931   9.7618001
  40.7107111  36.9077718  11.1464863  29.2313018  30.1316430  16.7693824
  29.8712398  29.9905189  16.0716787  28.3990549  29.8450943  16.3932426
  41.0940272  38.2134862  15.7008084  41.5276779  38.1210151  16.5491138
  41.8071853  38.1892362  15.0628100  30.0073322  39.4318860  12.8828817
  30.8013921  38.9369181  12.6811391  29.2965015  38.9036724  12.5196522
  34.8268167  41.8136956  17.2341184  34.8805189  42.3827892  18.0018900
  33.9582948  41.9838841  16.8695221  26.3156086  33.5761942   8.9588569
  25.3853674  33.5146398   9.1758531  26.4113558  33.0537895   8.1625210
  26.2341635  30.1016755  11.5466811  26.4948452  31.0162088  11.4375971
  27.0558807  29.6341198  11.6963424  27.7066560  31.5154512  18.7165635
  28.3789614  31.3071874  18.0678284  26.8796347  31.3176598  18.2770868
  41.9555821  38.2558563  18.2340969  42.1491712  39.1604373  18.4800244
  41.8556440  37.7965982  19.0679554  37.0170930  38.4065305  23.8081850
  36.8656437  38.1775857  22.8911933  37.0075610  39.3635907  23.8213195
  33.7856267  35.9797218  18.7928116  34.7148327  36.1308378  18.6197083
  33.3647297  36.0681239  17.9376763  32.5844598  40.0047882  16.5626654
  32.4455684  39.6366667  17.4352592  31.7959195  40.5195522  16.3910611
  33.1792750  45.1056979   7.9052190  33.3544506  44.6345022   8.7197813
  32.4925538  45.7322745   8.1333451  34.1349813  39.3829485  13.9515491
  33.7999646  39.3430255  14.8473141  33.6353759  38.7174201  13.4785902
  28.1094057  34.7897115  19.4768073  27.9713855  34.0577354  20.0779612
  29.0198981  34.7006015  19.1952260  37.0709005  36.7285519   4.2252551
  36.4538176  36.0032348   4.1285604  36.6025494  37.4894880   3.8819625
  30.7376358  34.5017074  18.9651752  31.4475977  33.8610267  18.9238371
  30.6945666  34.7529969  19.8877933  38.7263137  41.4384428  21.8858331
  38.6675683  40.7543648  21.2188914  39.1282655  42.1803418  21.4338957
  27.7453836  48.2546342  14.6792050  27.9850434  48.8864866  15.3571069
  26.9023032  47.9034382  14.9657410  28.8607551  30.9470944   3.3473855
  27.9837017  30.8259745   2.9836102  29.3365304  30.1557022   3.0952744
  38.7280544  39.4024012  20.1172311  37.8407323  39.0649934  20.2398710
  39.2979095  38.6707043  20.3541076  20.3809691  35.7348104  13.4415362
  21.0680731  35.4209834  12.8536378  20.2257820  36.6389468  13.1682614
  25.1844413  30.6238300  17.8700386  25.1002602  30.0163970  17.1350796
  24.3627120  31.1147318  17.8709883  32.2581697  44.0625464  17.0833554
  32.1851869  44.8680436  17.5952859  31.8159091  44.2617430  16.2581576
  32.0471477  43.2997234  10.5936376  31.2638999  43.8418914  10.6874600
  32.7464222  43.8171214  10.9930617  35.3568127  29.1091864  13.2370581
  35.8536827  28.3561826  12.9171651  34.5855109  29.1456180  12.6713791
  43.2097885  34.8132229  14.8788873  43.1987761  35.6956945  14.5082806
  42.3415264  34.4603780  14.6843410  34.7180381  43.9612298  19.2391713
  35.4308353  44.5959763  19.1667614  34.2270410  44.0576164  18.4231715
  36.4397908  37.8663551  10.8109005  35.5054187  37.9865013  10.6413709
  36.6174576  36.9636018  10.5469014  31.9403096  31.2509247  12.9642266
  31.5700883  30.6980287  13.6523171  32.4362188  30.6467380  12.4117266
  39.8270459  33.7080870  11.3459039  40.2930911  34.5408862  11.2719341
  40.2777960  33.2425852  12.0504297  29.7692294  41.7106742  20.0597284
  30.4701754  42.3443225  20.2126678  29.2987409  42.0521473  19.2992923
  37.8946690  40.0524691   8.3445191  38.1706534  39.9381286   9.2539065
  37.0251189  39.6542176   8.3057364  37.7987122  26.0761457  15.3849940
  36.8850202  26.3065684  15.5532147  38.2280223  26.1599901  16.2363972
  37.5693580  34.2651349  17.8849834  36.9165031  34.5127257  17.2302287
  37.9473960  33.4515487  17.5512311  34.5300754  44.3011042  11.9878004
  34.7123149  43.4832698  12.4505757  35.3533740  44.5178734  11.5502894
  34.8642920  43.2279227   9.2493053  35.3930686  42.7171682   8.6363215
  35.1271139  42.9121758  10.1138586  33.6181153  35.0071160  24.3715871
  32.9421790  34.9065289  25.0418246  34.4408787  34.8510374  24.8351868
  25.3660013  41.2443097  16.9928386  25.9513449  40.4986785  17.1256291
  25.1684851  41.5547053  17.8765050  28.2198668  44.2794344  12.0090829
  27.5509043  44.7640472  11.5254869  28.0811537  44.5263564  12.9234207
  19.9577667  33.8148697  15.7132830  19.9961767  33.2812288  16.5069948
  19.4517960  33.2883902  15.0943807  32.3603936  46.3138088  18.6073487
  32.9122244  46.4769709  19.3722572  32.7010130  46.9042525  17.9353512
  27.3368430  28.6613237  19.2095372  27.4009756  29.5228068  18.7972770
  27.2735550  28.0487239  18.4767730  37.2114811  41.1399345  24.4622142
  37.7554715  41.7529303  23.9677096  36.6301656  41.6978923  24.9789155
  23.5886245  32.5412799   8.7886761  23.8839686  31.6323477   8.7353815
  22.6874281  32.5200538   8.4667763  35.4972324  44.2620063  15.5937169
  35.3723463  43.4609803  15.0848115  36.1551415  44.7566256  15.1051139
  27.1180492  30.6168796  14.7714310  26.3967078  31.2304763  14.6321783
  27.9073748  31.1526560  14.6930956  37.5607232  42.0629083  17.2216719
  36.6137568  41.9434434  17.1495046  37.9090005  41.1751581  17.3042981
  25.3174086  30.2226897   8.9126086  24.9886793  29.3424276   8.7301192
  25.6713457  30.1674565   9.8002475  34.5653665  41.8581799  13.4221072
  34.4178628  40.9298507  13.6028642  35.3907159  41.8801890  12.9378147
  28.4315910  30.5099866   9.2801564  28.7711982  31.0385788   8.5580172
  28.8788030  30.8480273  10.0560130  38.1687787  42.6810358  14.5085944
  39.0934335  42.4753219  14.3710396  38.0003091  42.4326759  15.4175286
  31.7775822  25.9786230  17.1831955  32.6001892  25.5046708  17.0610845
  32.0213886  26.7576713  17.6830641  30.4184057  29.0074488   7.4794857
  31.1392419  29.3855741   6.9758573  29.7949361  29.7263365   7.5829835
  34.5615180  29.7119637   8.4153189  34.7778794  30.5944275   8.1142017
  34.0809247  29.3205850   7.6858831  29.3014401  32.6705350  14.9923934
  29.1558982  32.9845653  15.8848215  28.8239605  33.2890251  14.4394832
  31.1610784  29.6607898  15.0404823  31.1472353  28.7648992  14.7037121
  31.8783212  29.6678562  15.6743109  33.0136915  30.0945238  17.0857951
  32.7554692  31.0162309  17.0842281  32.4821955  29.6975673  17.7758415
  37.9583103  43.1996026   9.8648036  38.1319981  42.6342448   9.1121888
  38.4511995  43.9996920   9.6827526  23.7760063  35.2110695  17.9311595
  23.2313531  35.9870503  18.0631869  24.6539413  35.5581499  17.7730716
  30.5647680  28.5422279  10.3092393  30.6863591  27.6138925  10.5083281
  30.2749722  28.5560965   9.3970709  33.4338870  26.2277189  13.4459113
  33.4560567  26.2916522  12.4911093  33.8506929  25.3881698  13.6399619
  43.8122495  35.9632449  11.4838336  44.2553641  35.2139774  11.0857459
  42.9349005  35.9542585  11.1012068  24.5626085  34.3380591  20.8241752
  23.8207821  34.4863226  21.4106382  24.2418829  34.5988857  19.9608501
  40.8449699  39.9662496   8.4932265  41.3701023  40.3049768   7.7681585
  40.7572052  39.0309511   8.3095400  32.5069748  43.8796569  20.6222142
  32.8156874  43.6345716  21.4944841  33.3045230  44.0843208  20.1341012
  32.5290360  46.0334479  12.8527518  32.0895350  45.5410857  13.5460375
  33.2798477  45.4907446  12.6119593  25.0082699  42.2246020  12.8552146
  25.8340719  41.9249792  12.4750790  24.6576751  41.4553642  13.3041935
  29.9764232  41.5772488  14.9249820  29.3544241  40.9143193  14.6252048
  30.6469099  41.6033620  14.2423468  23.2091304  40.1432346  13.8141080
  22.3723212  39.7154520  13.6325081  23.1814949  40.3364789  14.7511871
  40.5343605  40.5995399  23.7983463  39.7439149  40.5819538  23.2587962
  40.2976960  41.1383693  24.5532499  40.6541480  37.4487866  21.1116191
  40.7039485  37.2837873  22.0531714  40.5455403  36.5815125  20.7214072
  29.5377739  40.1276411   8.4008280  29.6865859  40.8111876   7.7474953
  30.3444182  40.1081501   8.9157736  37.9445242  33.4318794  22.4275498
  38.8455105  33.2925258  22.1359496  38.0193217  33.5973248  23.3673676
  42.1559677  39.8684807  21.3558213  41.8644485  40.2314788  22.1921674
  41.5431808  39.1551815  21.1771545  43.3555359  37.4337687  13.8760783
  44.1902251  37.8727491  14.0398344  43.4914488  36.9576340  13.0569029
  40.4046865  34.9917422  19.8238271  40.8800987  35.1845068  19.0157122
  39.4812431  35.0476608  19.5781655  27.2930372  36.1541589   9.4069349
  27.0476414  35.2503919   9.6049559  27.4626286  36.1558739   8.4648827
  34.9827082  27.0265265  18.7894105  35.5009026  27.7626292  18.4640593
  34.6282214  27.3329259  19.6240864  26.5626019  31.8869946   6.9055511
  25.8695264  31.9614301   6.2495547  26.3177771  31.1230290   7.4277028
  35.2339676  23.4465548  14.3095001  35.5141430  22.7788737  14.9355428
  36.0190283  23.6394643  13.7969665  33.0373144  42.6224542   5.8720028
  32.4647111  43.2414729   5.4190500  33.6105938  43.1723903   6.4059950
  39.1048534  31.8683182  18.0566577  40.0565957  31.9681279  18.0778801
  38.9351985  31.0761450  18.5664661  37.1262914  28.9538765  18.2425977
  36.5312846  29.2343778  17.5472466  36.8412610  29.4432666  19.0142719
  41.5836612  35.0889301  17.1708876  41.5512932  34.1505302  17.3568560
  42.1937236  35.1673338  16.4374701  33.4219943  33.9585354   3.2136080
  34.3679048  33.8291563   3.2824498  33.0434188  33.2200016   3.6905508
  41.7331100  31.8800345  17.2167159  41.2170149  31.0958802  17.0297088
  42.6171049  31.5519062  17.3813679  39.3941827  25.6241360  13.1762972
  39.1966648  25.3156449  14.0606304  40.0041533  26.3502999  13.3060902
  47.4013162  36.1505308  16.3114913  48.1316550  35.8890596  16.8722616
  46.7920107  35.4134030  16.3516981  45.4828459  34.2913171  16.9089364
  44.7561622  34.1569136  16.3005856  45.0675746  34.5989999  17.7146082
  33.3058635  38.0103101  24.6736737  34.2261645  38.1881700  24.8676784
  33.2708218  37.0659146  24.5216436  31.6062860  31.8835331   3.1490965
  30.6994315  31.5868444   3.2253679  31.8838841  31.5865149   2.2825252
  22.5240800  33.2041694  13.5990012  22.2043585  32.3507002  13.3064386
  21.9774229  33.4190272  14.3547979  26.3020708  35.9204135  17.3159518
  26.5206718  36.8521243  17.3347552  26.7146482  35.5612110  18.1014322
  33.2224926  26.4272221   9.3035207  32.4125654  26.0819305   9.6790453
  33.9109343  26.1179764   9.8922818  35.1515474  25.5050267  10.9259503
  35.7046513  25.9245721  11.5849527  35.3885560  24.5786015  10.9682459
  30.3761645  28.7422266   3.2902945  31.2380809  29.0677164   3.5498762
  30.5611989  27.9553762   2.7776010  22.3929060  36.8244606  15.5683133
  21.6992532  36.4098559  15.0553088  23.1402051  36.8665142  14.9716552
  38.5294281  27.6150792  10.4338168  37.9492950  28.2735597  10.0516220
  38.2630214  26.7928137  10.0225585  36.9797847  27.0155850  12.6359488
  37.4797626  27.1272385  11.8273807  37.6233455  26.7116903  13.2760296
  31.0379843  34.9234480  25.5227329  30.5546925  35.7234840  25.7291218
  31.1240782  34.9342425  24.5694773  24.3065803  36.7562859  13.4449148
  24.2836491  36.8550547  12.4931031  24.6166439  37.6028010  13.7666314
  26.9653181  38.8139015  17.5595763  27.9196434  38.7822957  17.4925694
  26.7665704  38.3529638  18.3745989  27.5552563  37.3840131  20.1266560
  28.3745452  37.8784209  20.1501398  27.8289371  36.4672099  20.0984128
  37.3119159  29.7750883   9.4894516  36.4245014  30.0600533   9.2714711
  37.7273148  29.6144646   8.6421793  40.6633695  29.7997404  13.2048855
  41.4394085  30.2893856  13.4773472  39.9381829  30.2255458  13.6620725
  43.1006254  30.5125023  14.2622796  43.6950745  30.2720759  13.5516104
  43.1732838  29.7932154  14.8896332  25.3203410  44.3558634  14.5765961
  25.1857877  43.5959035  14.0103959  24.9035472  45.0799534  14.1094750
  37.2860183  35.2905419   9.7044806  37.2295384  35.7473970   8.8652439
  37.8388525  34.5296103   9.5267649  41.0964989  31.0795151  10.5294926
  40.8401923  30.6791786  11.3603133  40.4717857  31.7938945  10.4045065
  45.4077327  33.8191224  13.0366217  44.8476885  33.8884413  13.8097779
  44.8020830  33.6432209  12.3165713  28.4772535  45.2527951  14.7884403
  28.3604920  46.1973384  14.6863094  27.6564982  44.9501513  15.1770202
  38.0194962  36.4810200   6.9997335  37.9643766  36.3154471   6.0585779
  37.3941017  37.1886233   7.1559525  35.3340869  38.7859112  26.3250898
  36.2032029  38.9599764  25.9637533  34.8547621  39.6053529  26.2026627
  31.3291088  25.9818309   6.5782654  31.3169757  26.9260149   6.7350925
  32.2214509  25.7988454   6.2842115  29.5027050  45.9056213  18.0040332
  30.4054296  45.9379823  18.3206827  29.2764420  44.9756664  18.0186667
  31.2580652  44.6587199  14.6650410  30.3076283  44.6589061  14.5514783
  31.5613138  43.9119934  14.1486445  35.1443207  22.5761086  10.8328590
  34.3775603  22.0219572  10.9785273  35.5553912  22.6482954  11.6942742
  43.8023051  50.4475166  15.6657697  43.4641563  50.3316231  14.7778232
  44.6712820  50.0466331  15.6458704  44.2842834  51.6010018  21.6243903
  44.2731475  51.2062816  20.7524407  44.4463474  50.8676090  22.2177674
  37.2074299  53.7961834  14.4938809  37.9995591  53.4552659  14.0785108
  37.4470949  53.9056809  15.4140962  41.0050095  54.3847129  20.5723087
  40.7139961  55.2892760  20.4569753  41.6407080  54.4263657  21.2867156
  41.9306302  51.7623978  17.1624447  42.5269875  51.5380000  16.4481410
  41.9881274  51.0208723  17.7649894  49.4708461  41.8695999  18.1676968
  49.1391786  42.7391410  17.9438183  48.8754074  41.5532283  18.8470998
  39.4152462  50.5222342  13.6009585  38.4902958  50.3898556  13.8087277
  39.6636875  51.3016561  14.0979527  49.3637124  46.5891085  15.2470318
  48.4554002  46.5206494  14.9529079  49.3124720  47.0663030  16.0752143
  36.7761273  50.1655615  14.4353374  36.9053654  50.4190094  15.3492786
  36.0958724  50.7583323  14.1158029  43.4377990  48.0080731  23.1905215
  42.6611324  48.5674651  23.1808080  44.0768553  48.4937514  23.7120085
  51.2298771  44.7907524  17.0248192  50.5873151  45.0840057  16.3787986
  50.7253699  44.6760444  17.8301389  41.6924362  50.8166184  22.7523182
  42.4339047  51.3551228  22.4758006  40.9861348  51.4432473  22.9094734
  43.5210772  47.8967931  18.7228901  44.3671967  48.3207345  18.8663550
  43.4609410  47.2401556  19.4167464  46.6710217  45.5572300  20.3810074
  46.4271149  46.3114360  19.8444350  46.9470148  45.9357647  21.2157321
  46.2274909  44.7128733  15.9623912  45.3659388  45.0109986  16.2540650
  46.2537344  44.9299132  15.0304945  39.9360560  52.8042405  15.3077481
  40.5061917  53.2329673  14.6694965  40.5268671  52.5224990  16.0061667
  40.4285726  47.9705832  23.5538492  39.7984387  48.6522113  23.7873889
  40.3221814  47.8588914  22.6091630  35.7230699  47.6377628  14.4804416
  34.9329753  47.8935157  14.0044527  36.2141946  48.4525966  14.5856457
  37.6745444  48.0022208  11.4387893  36.8776607  48.1140902  11.9571389
  37.4471036  48.3408860  10.5728784  43.5051112  54.5266911  19.3870408
  43.5695544  54.9887318  20.2228580  42.7962035  53.8964276  19.5152718
  34.0068402  47.8908119  16.9119407  34.2576440  48.7755129  17.1776983
  34.5427950  47.7112720  16.1394499  39.7066469  42.2726598  25.9163743
  39.3133414  41.7192797  26.5911387  40.5232609  42.5837177  26.3070261
  42.6234430  43.6884477  23.5084000  43.3644143  44.2891630  23.4288462
  42.8552353  42.9462115  22.9502042  37.7675768  48.8740845  21.7862230
  37.6529283  47.9726102  22.0869328  36.9120286  49.1204541  21.4347046
  43.4021898  54.6105514  22.2554640  43.9350235  53.8493802  22.0253948
  42.8735979  54.3179166  22.9978794  46.5691593  39.7165580  17.7848282
  46.2255862  40.6067222  17.7087392  46.9370555  39.5267238  16.9217867
  45.6488133  42.0870235  15.7497515  45.1452929  42.0500371  14.9365320
  45.9418740  42.9962978  15.8094171  41.8931019  42.1708965  14.7563696
  42.7584016  41.9751774  14.3969586  41.9608528  41.9419317  15.6833053
  39.4993338  44.4011173  12.1280063  40.0737090  44.1786354  11.3953256
  40.0864321  44.4699868  12.8808665  41.8016006  41.2752422  10.8555133
  41.1480418  40.9601439  10.2311747  41.7596480  40.6528162  11.5814956
  45.0353746  47.7634355  15.1802780  44.1176308  47.9849302  15.0224468
  45.4513890  47.8380666  14.3214488  48.3679258  38.9759139  12.8866019
  48.6738135  38.1156503  12.5991934  49.0931863  39.5676760  12.6865013
  34.6603615  49.3789826  11.2747617  34.4628014  48.7859187  10.5498684
  34.1050279  49.0742036  11.9923556  42.6400338  49.2712932  13.3942210
  42.6948948  48.3186769  13.3184687  41.8291540  49.4272372  13.8783509
  46.1766910  48.3531817  19.9847483  46.5316298  48.5803290  20.8441949
  46.8239041  48.6850193  19.3624738  40.0706773  45.4608348  16.7693824
  40.7106152  45.3197107  16.0716787  39.2384303  45.1742861  16.3932426
  37.0735389  45.4308673  11.5466811  37.3342207  46.3454006  11.4375971
  37.8952562  44.9633115  11.6963424  38.5460315  46.8446430  18.7165635
  39.2183368  46.6363792  18.0678284  37.7190101  46.6468516  18.2770868
  44.4485887  43.4708371  20.7331296  43.8013802  44.1698320  20.6395773
  45.2186902  43.9044515  21.1007544  44.6250021  51.3089136  18.7928116
  45.5542081  51.4600295  18.6197083  44.2041051  51.3973156  17.9376763
  38.9487812  50.1189033  19.4768073  38.8107610  49.3869272  20.0779612
  39.8592735  50.0297933  19.1952260  41.5770113  49.8308992  18.9651752
  42.2869731  49.1902184  18.9238371  41.5339421  50.0821887  19.8877933
  40.2899047  46.8174210  20.7847392  39.7536404  46.3664949  21.4368988
  39.7015755  46.9520119  20.0417856  31.2203446  51.0640021  13.4415362
  31.9074485  50.7501751  12.8536378  31.0651574  51.9681386  13.1682614
  36.0238168  45.9530218  17.8700386  35.9396357  45.3455887  17.1350796
  35.2020874  46.4439236  17.8709883  46.1961882  44.4383781  13.2370581
  46.6930581  43.6853744  12.9171651  45.4248863  44.4748098  12.6713791
  42.7796850  46.5801164  12.9642266  42.4094638  46.0272205  13.6523171
  43.2755943  45.9759298  12.4117266  48.6380876  41.4053375  15.3849940
  47.7243956  41.6357602  15.5532147  49.0673978  41.4891819  16.2363972
  48.4087335  49.5943267  17.8849834  47.7558785  49.8419174  17.2302287
  48.7867715  48.7807405  17.5512311  44.4574908  50.3363078  24.3715871
  43.7815545  50.2357207  25.0418246  45.2802542  50.1802292  24.8351868
  36.2053767  56.5735014  16.9928386  36.7907204  55.8278702  17.1256291
  36.0078605  56.8838971  17.8765050  30.7971422  49.1440615  15.7132830
  30.8355521  48.6104205  16.5069948  30.2911715  48.6175820  15.0943807
  38.1762184  43.9905155  19.2095372  38.2403511  44.8519986  18.7972770
  38.1129304  43.3779157  18.4767730  37.6514457  46.0628288  22.8568406
  38.2786495  45.6805365  23.4705930  36.7942375  45.8442490  23.2224099
  34.4279999  47.8704717   8.7886761  34.7233440  46.9615395   8.7353815
  33.5268035  47.8492456   8.4667763  37.9574246  45.9460713  14.7714310
  37.2360832  46.5596681  14.6321783  38.7467502  46.4818478  14.6930956
  40.7600560  43.2815140  21.0454961  41.2834962  43.5277436  21.8081271
  40.5412893  44.1135175  20.6258099  36.1567841  45.5518814   8.9126086
  35.8280547  44.6716193   8.7301192  36.5107212  45.4966483   9.8002475
  41.9653105  44.2228835  18.7304632  41.6249925  43.4236648  19.1325312
  41.2592111  44.5230546  18.1581465  42.6169577  41.3078147  17.1831955
  43.4395646  40.8338626  17.0610845  42.8607640  42.0868631  17.6830641
  40.1408155  47.9997268  14.9923934  39.9952736  48.3137571  15.8848215
  39.6633359  48.6182168  14.4394832  42.0004538  44.9899816  15.0404823
  41.9866107  44.0940909  14.7037121  42.7176966  44.9970480  15.6743109
  43.8530669  45.4237156  17.0857951  43.5948447  46.3454227  17.0842281
  43.3215709  45.0267591  17.7758415  34.6153818  50.5402612  17.9311595
  34.0707286  51.3162420  18.0631869  35.4933168  50.8873417  17.7730716
  41.4041434  43.8714196  10.3092393  41.5257346  42.9430842  10.5083281
  41.1143477  43.8852882   9.3970709  44.2732625  41.5569107  13.4459113
  44.2954322  41.6208440  12.4911093  44.6900684  40.7173615  13.6399619
  35.4019840  49.6672509  20.8241752  34.6601576  49.8155144  21.4106382
  35.0812584  49.9280774  19.9608501  34.0485058  55.4724264  13.8141080
  33.2116967  55.0446438  13.6325081  34.0208704  55.6656707  14.7511871
  40.8882514  45.3846194  24.5182326  40.9370669  46.2608316  24.1360095
  41.4305028  44.8423587  23.9453969  48.7838997  48.7610711  22.4275498
  49.6848860  48.6217176  22.1359496  48.8586971  48.9265166  23.3673676
  43.1181802  46.1377566  21.2728684  42.2485112  46.4311132  21.0011273
  43.3541283  46.7218011  21.9935948  45.8220836  42.3557183  18.7894105
  46.3402780  43.0918210  18.4640593  45.4675969  42.6621176  19.6240864
  46.0733430  38.7757465  14.3095001  46.3535184  38.1080655  14.9355428
  46.8584037  38.9686561  13.7969665  49.9442289  47.1975099  18.0566577
  50.8959712  47.2973197  18.0778801  49.7745739  46.4053368  18.5664661
  47.9656668  44.2830683  18.2425977  47.3706600  44.5635695  17.5472466
  47.6806365  44.7724584  19.0142719  52.5724855  47.2092263  17.2167159
  52.0563904  46.4250719  17.0297088  53.4564803  46.8810979  17.3813679
  50.2335582  40.9533278  13.1762972  50.0360403  40.6448366  14.0606304
  50.8435287  41.6794917  13.3060902  44.1452390  53.3395018  24.6736737
  45.0655399  53.5173617  24.8676784  44.1101973  52.3951064  24.5216436
  33.3634555  48.5333612  13.5990012  33.0437339  47.6798920  13.3064386
  32.8167983  48.7482190  14.3547979  37.1414462  51.2496053  17.3159518
  37.3600472  52.1813161  17.3347552  37.5540236  50.8904027  18.1014322
  44.0618680  41.7564138   9.3035207  43.2519408  41.4111223   9.6790453
  44.7503097  41.4471682   9.8922818  45.9909228  40.8342185  10.9259503
  46.5440267  41.2537638  11.5849527  46.2279315  39.9077933  10.9682459
  42.0142328  46.8229259  26.7062267  41.9139055  47.7723616  26.6374358
  41.7963870  46.4947498  25.8338337  33.2322815  52.1536523  15.5683133
  32.5386286  51.7390476  15.0553088  33.9795806  52.1957060  14.9716552
  47.8191602  42.3447768  12.6359488  48.3191380  42.4564302  11.8273807
  48.4627210  42.0408821  13.2760296  41.8773598  50.2526397  25.5227329
  41.3940679  51.0526758  25.7291218  41.9634537  50.2634342  24.5694773
  35.1459557  52.0854777  13.4449148  35.1230245  52.1842464  12.4931031
  35.4560194  52.9319928  13.7666314  37.8046935  54.1430932  17.5595763
  38.7590189  54.1114875  17.4925694  37.6059459  53.6821556  18.3745989
  38.3946317  52.7132048  20.1266560  39.2139206  53.2076127  20.1501398
  38.6683125  51.7964016  20.0984128  33.6481232  47.0470182  20.8258757
  34.2940095  46.5369136  21.3145983  33.4398383  47.7838864  21.4002183
  45.9836962  37.9053003  10.8328590  45.2169357  37.3511490  10.9785273
  46.3947667  37.9774872  11.6942742  37.9878723  44.1937799  24.9233772
  38.8510184  43.8374604  25.1337096  37.4144133  43.8551694  25.6109176
  26.3721057   2.8169550  11.1867448  26.9160961   3.4299508  10.6922403
  25.7907902   3.3749128  11.7034461  29.6949852   2.2765604  10.5228770
  28.9045396   2.2589743   9.9833269  29.4583206   2.8153898  11.2777806
  24.4947116   0.4629317  13.0496205  25.3638276   0.6369969  12.6882840
  24.0153868   1.2823734  12.9271934  36.1539592  12.1717943   2.4541479
  36.7918002  12.0524690   1.7504819  36.0360435  13.1198787   2.5129432
  32.9629298  12.1245371   2.3903004  32.6247810  12.0086436   1.5023539
  33.8319066  11.7236536   2.3704010  33.4449081  13.2780223   8.3489210
  33.4337722  12.8833021   7.4769713  33.6069721  12.5446295   8.9422981
  30.1656342  16.0617334   7.2968394  29.8746208  16.9662965   7.1815060
  30.8013327  16.1033862   8.0112463  31.0912549  13.4394183   3.8869753
  31.6876121  13.2150205   3.1726716  31.1487521  12.6978928   4.4895201
  35.1246227  15.7478750   4.2918187  34.8246950  16.6503789   4.1833994
  34.7797287  15.4810933   5.1439340  30.1067007  22.5123070  -2.7410845
  30.0291037  23.4630895  -2.6622364  29.5028651  22.1668943  -2.0835919
  32.5984237   9.6850936   9.9150522  31.8217571  10.2444856   9.9053386
  33.2374800  10.1707719  10.4365392  30.8530609  12.4936389   9.4768489
  31.5945294  13.0321433   9.2003312  30.1467595  13.1202678   9.6340041
  36.3285949  14.6365530   8.0740650  36.7369305  14.1947940   7.3295283
  35.6063210  14.0618157   8.3274843  32.6817019   9.5738136   5.4474207
  33.5278214   9.9977550   5.5908856  32.6215657   8.9171761   6.1412770
  36.6514763  15.1966720   1.8292939  36.0223626  15.3612434   1.1269007
  36.2640426  15.6108330   2.6003903  35.8316464   7.2342505   7.1055381
  35.5877396   7.9884565   6.5689657  36.1076395   7.6127852   7.9402628
  37.7854927  13.7781117   5.7832646  37.9971822  14.4212877   5.1067028
  37.7384675  12.9443434   5.3154577  29.0966806  14.4812610   2.0322788
  29.6668163  14.9099878   1.3940272  29.6874918  14.1995194   2.7306973
  29.5891973   9.6476037  10.2783799  28.9590634  10.3292318  10.5119196
  29.4828061   9.5359119   9.3336937  38.9000755  16.6553072   3.9555004
  39.7218199  16.2533260   3.6737685  38.8963158  16.5521307   4.9071120
  32.6657358  16.2037116   6.1115714  32.7301791  16.6657523   6.9473886
  31.9568282  15.5734481   6.2398024  28.8672716   3.9496803  12.6409050
  28.4739661   3.3963002  13.3156694  29.6838856   4.2607382  13.0315567
  31.7840677   5.3654682  10.2329306  32.5250390   5.9661835  10.1533769
  32.0158599   4.6232320   9.6747349  26.9282015  10.5511049   8.5107536
  26.8135530   9.6496307   8.8114635  26.0726532  10.7974746   8.1592353
  34.0073852  18.4928790  10.1095037  33.5637707  17.7065168   9.7915941
  34.6691066  18.6807940   9.4438928  28.7660974  20.0224591   4.6355715
  29.3168399  19.8941655   3.8632709  27.9272449  20.3219480   4.2850608
  36.1055090  18.7731590   8.1376438  36.0873566  19.5940471   7.6456707
  37.0275011  18.6485665   8.3626579  32.5628145  16.2875719   8.9799946
  33.0956481  15.5264007   8.7499254  32.0342226  15.9949371   9.7224101
  38.9073703  13.6110732   1.6085805  38.2497378  14.3009994   1.6965933
  39.7114103  14.0007164   1.9519791  36.9273898  18.7837603  -1.2781293
  37.2196872  19.3442660  -1.9968927  37.4372518  19.0766164  -0.5228134
  31.8907523  19.5617954  -0.1887840  31.8483702  19.7878800  -1.1179308
  32.8070222  19.3281329  -0.0402038  35.3373157  10.0302022   6.7092790
  35.6922544  10.2573495   7.5687255  35.9845288  10.3620398   6.0870045
  41.0940273  15.2196984   2.4253390  41.5276780  15.1272274   3.2736444
  41.8071854  15.1954485   1.7873406  34.8268168  18.8199079   3.9586491
  34.8805190  19.3890015   4.7264207  33.9582949  18.9900964   3.5940528
  41.9555823  15.2620685   4.9586276  42.1491713  16.1666496   5.2045551
  41.8556441  14.8028104   5.7924861  33.6092133   5.1478576   7.4576603
  32.9620048   5.8468525   7.3641079  34.3793149   5.5814720   7.8252851
  37.0170931  15.4127428  10.5327156  36.8656438  15.1837980   9.6157240
  37.0075611  16.3698029  10.5458501  33.7856268  12.9859341   5.5173423
  34.7148328  13.1370500   5.3442390  33.3647298  13.0743361   4.6622069
  32.5844600  17.0110005   3.2871960  32.4455685  16.6428789   4.1597898
  31.7959196  17.5257644   3.1155918  34.1349815  16.3891608   0.6760798
  33.7999647  16.3492378   1.5718448  33.6353760  15.7236324   0.2031208
  28.1094059  11.7959238   6.2013379  27.9713857  11.0639477   6.8024918
  29.0198982  11.7068138   5.9197567  30.7376359  11.5079197   5.6897059
  31.4475978  10.8672389   5.6483677  30.6945667  11.7592092   6.6123240
  38.7263138  18.4446550   8.6103638  38.6675684  17.7605771   7.9434221
  39.1282656  19.1865540   8.1584264  29.4505293   8.4944415   7.5092698
  28.9142650   8.0435153   8.1614295  28.8622002   8.6290324   6.7663163
  27.7453837  25.2608464   1.4037357  27.9850435  25.8926988   2.0816376
  26.9023033  24.9096504   1.6902716  38.7280545  16.4086134   6.8417618
  37.8407324  16.0712056   6.9644017  39.2979096  15.6769166   7.0786383
  32.2581699  21.0687587   3.8078861  32.1851870  21.8742558   4.3198165
  31.8159092  21.2679553   2.9826882  32.0471478  20.3059357  -2.6818318
  31.2639000  20.8481037  -2.5880093  32.7464223  20.8233336  -2.2824076
  34.7180382  20.9674421   5.9637020  35.4308354  21.6021886   5.8912921
  34.2270411  21.0638287   5.1477021  29.7692296  18.7168864   6.7842590
  30.4701755  19.3505347   6.9371985  29.2987411  19.0583596   6.0238230
  37.5693582  11.2713472   4.6095141  36.9165032  11.5189379   3.9547594
  37.9473962  10.4577610   4.2757618  34.5300756  21.3073165  -1.2876689
  34.7123150  20.4894821  -0.8248937  35.3533742  21.5240857  -1.7251799
  33.6181155  12.0133283  11.0961178  32.9421792  11.9127412  11.7663553
  34.4408789  11.8572496  11.5597175  25.3660014  18.2505219   3.7173693
  25.9513451  17.5048907   3.8501597  25.1684852  18.5609176   4.6010357
  28.2198669  21.2856467  -1.2663865  27.5509044  21.7702594  -1.7499824
  28.0811539  21.5325687  -0.3520486  32.3603938  23.3200210   5.3318794
  32.9122246  23.4831832   6.0967879  32.7010131  23.9104648   4.6598819
  26.8120703   7.7398493   9.5813713  27.4392742   7.3575570  10.1951237
  25.9548622   7.5212694   9.9469405  37.2114812  18.1461468  11.1867448
  37.7554716  18.7591426  10.6922403  36.6301657  18.7041046  11.7034461
  35.4972325  21.2682186   2.3182476  35.3723464  20.4671926   1.8093421
  36.1551416  21.7628379   1.8296446  37.5607233  19.0691206   3.9462026
  36.6137569  18.9496557   3.8740353  37.9090006  18.1813704   4.0288288
  29.9206807   4.9585345   7.7700268  30.4441208   5.2047641   8.5326577
  29.7019140   5.7905380   7.3503405  34.5653667  18.8643922   0.1466378
  34.4178629  17.9360629   0.3273948  35.3907160  18.8864013  -0.3376546
  38.1687788  19.6872481   1.2331251  39.0934336  19.4815342   1.0955702
  38.0003092  19.4388882   2.1420593  24.5626086  11.3442714   7.5487058
  23.8207822  11.4925349   8.1351689  24.2418831  11.6050979   6.6853808
  32.5069749  20.8858692   7.3467448  32.8156875  20.6407839   8.2190148
  33.3045231  21.0905330   6.8586318  32.5290361  23.0396601  -0.4227175
  32.0895351  22.5472980   0.2705681  33.2798478  22.4969569  -0.6635100
  29.9764233  18.5834610   1.6495126  29.3544242  17.9205315   1.3497354
  30.6469100  18.6095742   0.9668774  30.0488761   7.0616398  11.2427632
  30.0976916   7.9378521  10.8605402  30.5911275   6.5193792  10.6699276
  40.5343606  17.6057522  10.5228770  39.7439150  17.5881661   9.9833269
  40.2976961  18.1445815  11.2777806  40.6541481  14.4549988   7.8361498
  40.7039486  14.2899996   8.7777021  40.5455405  13.5877247   7.4459379
  37.9445244  10.4380916   9.1520805  38.8455106  10.2987381   8.8604803
  38.0193218  10.6035371  10.0918982  32.2788049   7.8147771   7.9973991
  31.4091358   8.1081337   7.7256580  32.5147529   8.3988216   8.7181255
  42.1559678  16.8746930   8.0803520  41.8644486  17.2376910   8.9166981
  41.5431809  16.1613938   7.9016852  40.4046866  11.9979544   6.5483578
  40.8800988  12.1907191   5.7402429  39.4812432  12.0538730   6.3026961
  34.9827083   4.0327388   5.5139412  35.5009027   4.7688415   5.1885900
  34.6282216   4.3391381   6.3486171  39.1048535   8.8745304   4.7811883
  40.0565958   8.9743402   4.8024107  38.9351986   8.0823573   5.2909968
  37.1262915   5.9600888   4.9671284  36.5312847   6.2405900   4.2717773
  36.8412612   6.4494788   5.7388025  33.3058637  15.0165223  11.3982044
  34.2261646  15.1943822  11.5922090  33.2708220  14.0721269  11.2461743
  26.3020709  12.9266258   4.0404825  26.5206719  13.8583366   4.0592859
  26.7146483  12.5674232   4.8259629  31.1748574   8.4999464  13.4307574
  31.0745301   9.4493821  13.3619665  30.9570117   8.1717702  12.5583644
  31.0379845  11.9296602  12.2472636  30.5546926  12.7296963  12.4536525
  31.1240784  11.9404547  11.2940080  26.9653182  15.8201137   4.2841069
  27.9196436  15.7885079   4.2171001  26.7665706  15.3591761   5.0991295
  27.5552564  14.3902253   6.8511867  28.3745453  14.8846332   6.8746704
  27.8289372  13.4734221   6.8229435  25.3203411  21.3620757   1.3011267
  25.1857879  20.6021157   0.7349265  24.9035473  22.0861656   0.8340056
  28.4772537  22.2590074   1.5129710  28.3604921  23.2035506   1.4108400
  27.6564983  21.9563635   1.9015509  22.8087478   8.7240387   7.5504064
  23.4546342   8.2139341   8.0391289  22.6004629   9.4609069   8.1247489
  35.3340871  15.7921235  13.0496205  36.2032030  15.9661887  12.6882840
  34.8547622  16.6115651  12.9271934  29.5027051  22.9118336   4.7285638
  30.4054297  22.9441946   5.0452133  29.2764421  21.9818786   4.7431974
  31.2580653  21.6649322   1.3895717  30.3076284  21.6651184   1.2760089
  31.5613139  20.9182057   0.8731752  27.1484969   5.8708004  11.6479078
  28.0116431   5.5144809  11.8582403  26.5750380   5.5321899  12.3354483
  43.8023053  27.4537289   2.3903004  43.4641564  27.3378353   1.5023539
  44.6712821  27.0528454   2.3704010  44.2842836  28.6072140   8.3489210
  44.2731476  28.2124939   7.4769713  44.4463475  27.8738213   8.9422981
  37.2074300  30.8023957   1.2184115  37.9995592  30.4614781   0.8030415
  37.4470950  30.9118932   2.1386269  41.0050097  31.3909252   7.2968394
  40.7139963  32.2954883   7.1815060  41.6407081  31.4325780   8.0112463
  41.9306304  28.7686101   3.8869753  42.5269876  28.5442123   3.1726716
  41.9881275  28.0270846   4.4895201  45.9639982  31.0770668   4.2918187
  45.6640705  31.9795706   4.1833994  45.6191041  30.8102851   5.1439340
  39.4152463  27.5284464   0.3254892  38.4902960  27.3960679   0.5332583
  39.6636876  28.3078684   0.8224834  36.7761274  27.1717738   1.1598681
  36.9053655  27.4252217   2.0738092  36.0958726  27.7645446   0.8403336
  43.4377991  25.0142853   9.9150522  42.6611325  25.5736774   9.9053386
  44.0768554  25.4999636  10.4365392  41.6924364  27.8228307   9.4768489
  42.4339048  28.3613351   9.2003312  40.9861349  28.4494595   9.6340041
  47.1679703  29.9657447   8.0740650  47.5763059  29.5239858   7.3295283
  46.4456965  29.3910075   8.3274843  43.5210773  24.9030054   5.4474207
  44.3671969  25.3269468   5.5908856  43.4609411  24.2463678   6.1412770
  46.6710219  22.5634422   7.1055381  46.4271151  23.3176483   6.5689657
  46.9470149  22.9419770   7.9402628  48.6248681  29.1073035   5.7832646
  48.8365577  29.7504795   5.1067028  48.5778430  28.2735351   5.3154577
  46.2274910  21.7190855   2.6869219  45.3659389  22.0172109   2.9785956
  46.2537345  21.9361254   1.7550251  39.9360561  29.8104527   2.0322788
  40.5061918  30.2391796   1.3940272  40.5268673  29.5287112   2.7306973
  40.4285727  24.9767955  10.2783799  39.7984388  25.6584236  10.5119196
  40.3221815  24.8651037   9.3336937  35.7230700  24.6439751   1.2049723
  34.9329754  24.8997279   0.7289834  36.2141947  25.4588089   1.3101764
  37.6745445  25.0084330  -1.8366800  36.8776609  25.1203024  -1.3183305
  37.4471037  25.3470982  -2.7025910  43.5051113  31.5329033   6.1115714
  43.5695545  31.9949441   6.9473886  42.7962037  30.9026398   6.2398024
  34.0068403  24.8970241   3.6364714  34.2576441  25.7817251   3.9022290
  34.5427951  24.7174843   2.8639806  39.7066470  19.2788721  12.6409050
  39.3133416  18.7254919  13.3156694  40.5232610  19.5899299  13.0315567
  42.6234431  20.6946600  10.2329306  43.3644145  21.2953753  10.1533769
  42.8552354  19.9524238   9.6747349  37.7675769  25.8802967   8.5107536
  37.6529284  24.9788224   8.8114635  36.9120287  26.1266664   8.1592353
  44.8467607  33.8220707  10.1095037  44.4031461  33.0357086   9.7915941
  45.5084820  34.0099858   9.4438928  39.6054728  35.3516509   4.6355715
  40.1562153  35.2233572   3.8632709  38.7666204  35.6511398   4.2850608
  46.9448845  34.1023507   8.1376438  46.9267320  34.9232388   7.6456707
  47.8668765  33.9777583   8.3626579  43.4021899  31.6167637   8.9799946
  43.9350236  30.8555925   8.7499254  42.8735980  31.3241289   9.7224101
  41.8931020  19.1771088   1.4809003  42.7584017  18.9813896   1.1214893
  41.9608529  18.9481439   2.4078360  39.4993339  21.4073296  -1.1474630
  40.0737091  21.1848477  -1.8801437  40.0864322  21.4761990  -0.3946029
  45.0353747  24.7696478   1.9048087  44.1176309  24.9911425   1.7469775
  45.4513891  24.8442789   1.0459794  34.6603616  26.3851949  -2.0007076
  34.4628016  25.7921309  -2.7256010  34.1050280  26.0804159  -1.2831137
  42.6400339  26.2775055   0.1187517  42.6948949  25.3248891   0.0429993
  41.8291541  26.4334494   0.6028815  46.1766911  25.3593939   6.7092790
  46.5316299  25.5865412   7.5687255  46.8239042  25.6912316   6.0870045
  40.0706774  22.4670470   3.4939131  40.7106153  22.3259229   2.7962094
  39.2384305  22.1804984   3.1177733  37.0735391  22.4370795  -1.7287882
  37.3342208  23.3516129  -1.8378722  37.8952563  21.9695238  -1.5791270
  38.5460316  23.8508552   5.4410942  39.2183369  23.6425915   4.7923591
  37.7190102  23.6530638   5.0016174  44.4485888  20.4770493   7.4576603
  43.8013803  21.1760443   7.3641079  45.2186903  20.9106637   7.8252851
  47.8564686  30.7419346  10.5327156  47.7050192  30.5129897   9.6157240
  47.8469365  31.6989947  10.5458501  44.6250022  28.3151258   5.5173423
  45.5542082  28.4662418   5.3442390  44.2041052  28.4035279   4.6622069
  38.9487813  27.1251155   6.2013379  38.8107611  26.3931394   6.8024918
  39.8592737  27.0360056   5.9197567  41.5770114  26.8371115   5.6897059
  42.2869732  26.1964307   5.6483677  41.5339422  27.0884010   6.6123240
  49.5656893  33.7738468   8.6103638  49.5069439  33.0897688   7.9434221
  49.9676411  34.5157458   8.1584264  40.2899048  23.8236333   7.5092698
  39.7536405  23.3727071   8.1614295  39.7015756  23.9582241   6.7663163
  49.5674300  31.7378052   6.8417618  48.6801079  31.4003974   6.9644017
  50.1372851  31.0061083   7.0786383  31.2203447  28.0702144   0.1660669
  31.9074487  27.7563874  -0.4218316  31.0651576  28.9743508  -0.1072079
  36.0238169  22.9592340   4.5945693  35.9396358  22.3518010   3.8596103
  35.2020875  23.4501359   4.5955189  42.7796852  23.5863287  -0.3112428
  42.4094639  23.0334327   0.3768478  43.2755944  22.9821420  -0.8637427
  40.6086050  34.0460782   6.7842590  41.3095510  34.6797265   6.9371985
  40.1381165  34.3875513   6.0238230  48.4087336  26.6005389   4.6095141
  47.7558786  26.8481297   3.9547594  48.7867716  25.7869528   4.2757618
  44.4574909  27.3425200  11.0961178  43.7815546  27.2419330  11.7663553
  45.2802543  27.1864414  11.5597175  36.2053768  33.5797137   3.7173693
  36.7907205  32.8340825   3.8501597  36.0078607  33.8901094   4.6010357
  30.7971423  26.1502737   2.4378136  30.8355523  25.6166328   3.2315254
  30.2911716  25.6237943   1.8189113  38.1762185  20.9967278   5.9340679
  38.2403512  21.8582109   5.5218076  38.1129306  20.3841279   5.2013037
  37.6514458  23.0690410   9.5813713  38.2786497  22.6867488  10.1951237
  36.7942377  22.8504612   9.9469405  48.0508566  33.4753385  11.1867448
  48.5948470  34.0883344  10.6922403  47.4695411  34.0332964  11.7034461
  34.4280001  24.8766839  -4.4867932  34.7233442  23.9677518  -4.5400879
  33.5268036  24.8554579  -4.8086930  37.9574248  22.9522836   1.4959616
  37.2360833  23.5658804   1.3567090  38.7467503  23.4880601   1.4176262
  40.7600561  20.2877262   7.7700268  41.2834963  20.5339559   8.5326577
  40.5412894  21.1197297   7.3503405  36.1567842  22.5580937  -4.3628607
  35.8280548  21.6778316  -4.5453501  36.5107213  22.5028606  -3.4752218
  41.9653106  21.2290957   5.4549939  41.6249927  20.4298771   5.8570618
  41.2592112  21.5292668   4.8826772  42.6169578  18.3140270   3.9077262
  43.4395647  17.8400748   3.7856152  42.8607642  19.0930754   4.4075948
  40.1408157  25.0059391   1.7169240  39.9952737  25.3199694   2.6093522
  39.6633360  25.6244291   1.1640139  42.0004540  21.9961939   1.7650130
  41.9866108  21.1003032   1.4282428  42.7176968  22.0032602   2.3988416
  43.8530670  22.4299279   3.8103257  43.5948448  23.3516349   3.8087588
  43.3215711  22.0329713   4.5003721  34.6153819  27.5464735   4.6556901
  34.0707287  28.3224543   4.7877176  35.4933169  27.8935539   4.4976023
  35.4019841  26.6734631   7.5487058  34.6601577  26.8217267   8.1351689
  35.0812585  26.9342897   6.6853808  43.3463503  36.2150609   7.3467448
  43.6550630  35.9699756   8.2190148  44.1438985  36.4197248   6.8586318
  34.0485059  32.4786386   0.5386386  33.2116968  32.0508561   0.3570388
  34.0208705  32.6718830   1.4757178  40.8882515  22.3908316  11.2427632
  40.9370671  23.2670439  10.8605402  41.4305029  21.8485709  10.6699276
  51.3737361  32.9349439  10.5228770  50.5832904  32.9173578   9.9833269
  51.1370715  33.4737733  11.2777806  51.4935236  29.7841906   7.8361498
  51.5433241  29.6191913   8.7777021  51.3849159  28.9169165   7.4459379
  48.7838998  25.7672834   9.1520805  49.6848861  25.6279299   8.8604803
  48.8586973  25.9327289  10.0918982  43.1181804  23.1439689   7.9973991
  42.2485113  23.4373255   7.7256580  43.3541284  23.7280134   8.7181255
  52.9953433  32.2038847   8.0803520  52.7038241  32.5668828   8.9166981
  52.3825564  31.4905856   7.9016852  51.2440621  27.3271462   6.5483578
  51.7194742  27.5199108   5.7402429  50.3206186  27.3830648   6.3026961
  45.8220837  19.3619306   5.5139412  46.3402781  20.0980332   5.1885900
  45.4675970  19.6683299   6.3486171  49.9442290  24.2037222   4.7811883
  50.8959713  24.3035320   4.8024107  49.7745740  23.4115491   5.2909968
  47.9656669  21.2892805   4.9671284  47.3706601  21.5697818   4.2717773
  47.6806366  21.7786706   5.7388025  44.1452391  30.3457141  11.3982044
  45.0655401  30.5235740  11.5922090  44.1101974  29.4013186  11.2461743
  33.3634556  25.5395734   0.3235319  33.0437340  24.6861043   0.0309693
  32.8167984  25.7544313   1.0793286  37.1414464  28.2558175   4.0404825
  37.3600473  29.1875283   4.0592859  37.5540237  27.8966150   4.8259629
  42.0142329  23.8291381  13.4307574  41.9139056  24.7785738  13.3619665
  41.7963871  23.5009620  12.5583644  33.2322816  29.1598646   2.2928440
  32.5386288  28.7452599   1.7798395  33.9795807  29.2019182   1.6961859
  41.8773599  27.2588520  12.2472636  41.3940681  28.0588880  12.4536525
  41.9634538  27.2696465  11.2940080  35.1459559  29.0916900   0.1694455
  35.1230247  29.1904587  -0.7823662  35.4560195  29.9382051   0.4911621
  37.8046936  31.1493055   4.2841069  38.7590190  31.1176997   4.2171001
  37.6059460  30.6883679   5.0991295  38.3946319  29.7194171   6.8511867
  39.2139208  30.2138250   6.8746704  38.6683126  28.8026139   6.8229435
  33.6481233  24.0532305   7.5504064  34.2940096  23.5431259   8.0391289
  33.4398384  24.7900986   8.1247489  46.1734625  31.1213152  13.0496205
  47.0425785  31.2953804  12.6882840  45.6941377  31.9407569  12.9271934
  37.9878724  21.1999922  11.6479078  38.8510185  20.8436727  11.8582403
  37.4144135  20.8613817  12.3354483  50.5460225  34.6080638  12.6409050
  50.1527170  34.0546837  13.3156694  51.3626365  34.9191217  13.0315567
  48.4908212  38.3982328   9.5813713  49.1180251  38.0159405  10.1951237
  47.6336131  38.1796530   9.9469405  51.7276270  37.7200234  11.2427632
  51.7764425  38.5962357  10.8605402  52.2698784  37.1777627  10.6699276
  52.8536083  39.1583299  13.4307574  52.7532810  40.1077656  13.3619665
  52.6357625  38.8301538  12.5583644  48.8272478  36.5291839  11.6479078
  49.6903940  36.1728644  11.8582403  48.2537889  36.1905734  12.3354483
   3.6331727  43.6575658  26.8549359   2.8795436  43.0883056  26.6993363
   3.7679269  43.6238323  27.8019994   4.0438143  43.8151268  29.5869603
   4.7741531  43.5536556  30.1477307   3.4345088  43.0779990  29.6271671
   2.1253440  41.9559131  30.1844054   1.3986603  41.8215096  29.5760546
   1.7100727  42.2635959  30.9900773   2.0502307  41.4837184  26.3120907
   1.4901865  41.5530373  27.0852469   1.4445811  41.3078168  25.5920404
   5.0104239  46.6405099  26.1620709   5.3163116  45.7802463  25.8746625
   5.7356844  47.2322719  25.9619703   2.7158411  46.4403425  27.5849692
   2.9960165  45.7726614  28.2110118   3.5009018  46.6332521  27.0724356
   6.8760563  48.6179238  26.4517662   6.6785384  48.3094326  27.3360994
   7.4860268  49.3440877  26.5815592   2.6261942  45.5698963  24.1083281
   1.8594338  45.0157450  24.2539963   3.0372647  45.6420832  24.9697432
   3.6331729  20.6637781  13.5794666   2.8795437  20.0945179  13.4238670
   3.7679270  20.6300445  14.5265300   4.0438144  20.8213391  16.3114910
   4.7741532  20.5598679  16.8722613   3.4345089  20.0842113  16.3516978
   2.1253441  18.9621253  16.9089361   1.3986605  18.8277218  16.3005853
   1.7100728  19.2698082  17.7146079   2.0502309  18.4899306  13.0366214
   1.4901867  18.5592496  13.8097776   1.4445812  18.3140291  12.3165710
   3.6358327  35.1655820  15.7296170   4.2736737  35.0462568  15.0259510
   3.5179170  36.1136664  15.7884122   0.9267816  36.2718100  21.6243900
   0.9156457  35.8770898  20.7524404   1.0888456  35.5384173  22.2177671
   3.1899596  32.8907274  12.8049378   3.9762685  32.4726697  12.4539795
   3.4538300  33.7953366  12.9731026   8.5908023  32.8282507  13.7082356
   9.3233195  32.2581724  13.9420186   7.8347378  32.4404108  14.1488862
   6.1133443  26.5404081  18.1676965   5.7816768  27.4099492  17.9438180
   5.5179056  26.2240365  18.8470995   2.6064963  38.7416627  17.5672878
   2.3065686  39.6441666  17.4588685   2.2616022  38.4748811  18.4194030
   6.0062106  31.2599168  15.2470315   5.0978984  31.1914576  14.9529076
   5.9549702  31.7371112  16.0752140   7.8723753  29.4615606  17.0248189
   7.2298133  29.7548139  16.3787983   7.3678681  29.3468526  17.8301385
   5.5263916  33.2078779   7.7134048   6.4381773  33.4406166   7.5381746
   5.0173563  33.7915823   7.1509127   3.8104684  37.6303407  21.3495341
   4.2188040  37.1885817  20.6049973   3.0881946  37.0556034  21.6029534
   4.1333499  38.1904598  15.1047630   3.5042361  38.3550312  14.4023697
   3.7459161  38.6046207  15.8758594   8.0122731  39.1259035  12.4591993
   7.3273769  39.5057937  11.9089027   8.0966580  39.7354362  13.1923941
   3.3135199  30.2280382  20.3810071   3.0696131  30.9822443  19.8444347
   3.5895130  30.6065730  21.2157318   5.2673662  36.7718994  19.0587337
   5.4790557  37.4150754  18.3821718   5.2203410  35.9381311  18.5909267
   2.8699891  29.3836815  15.9623909   2.0084370  29.6818069  16.2540647
   2.8962326  29.6007214  15.0304942   6.3819490  39.6490950  17.2309694
   7.2036934  39.2471137  16.9492376   6.3781893  39.5459184  18.1825810
  14.4725483  35.9929698  13.5794666  13.7189192  35.4237096  13.4238670
  14.6073024  35.9592363  14.5265300   1.4892588  41.4866667  23.3849727
   1.0456442  40.7003046  23.0670632   2.1509801  41.6745818  22.7193618
   3.5873826  41.7669467  21.4131128   3.5692301  42.5878348  20.9211397
   4.5093746  41.6423542  21.6381269   3.2116575  24.3873663  17.7848278
   2.8680844  25.2775304  17.7087389   3.5795537  24.1975320  16.9217863
   2.2913115  26.7578318  15.7497512   1.7877911  26.7208453  14.9365317
   2.5843722  27.6671060  15.8094168   8.1501132  37.1314628   8.2273887
   7.3730574  36.7925788   7.7829049   8.8292613  37.1367251   7.5528852
   2.9653161  32.2509366   8.1180495   2.6603296  32.5655515   8.9690638
   3.9183603  32.3290786   8.1607828   6.3892439  36.6048610  14.8840495
   5.7316113  37.2947871  14.9720624   7.1932838  36.9945041  15.2274481
   5.1997897  34.9592982  12.9344437   5.7129779  35.5922974  13.4366146
   5.8499121  34.3594178  12.5687797   1.6778728  32.4342438  15.1802777
   0.7601290  32.6557385  15.0224465   2.0938872  32.5088748  14.3214485
   2.4613776  33.8333853  10.3105458   3.2085595  34.3455251  10.0012580
   2.7305366  33.5117906  11.1709851   5.9659694  39.9398984  11.0623579
   5.5122021  39.0989894  11.1188770   5.3353660  40.5760382  11.3998360
   4.9092613  30.8690970  12.2924247   4.1715370  30.3568356  12.6234489
   5.1619387  30.4291351  11.4807524   4.4092633  41.7775480  11.9973398
   4.7015607  42.3380537  11.2785763   4.9191253  42.0704041  12.7526557
   5.0104241  23.6467222  12.8866016   5.3163117  22.7864585  12.5991931
   5.7356845  24.2384842  12.6865010   2.8191892  33.0239899  19.9847480
   3.1741280  33.2511372  20.8441946   3.4664023  33.3558276  19.3624735
   8.5489629  36.1458335  10.6896809   8.4107527  36.3359931   9.7617998
   8.1925848  36.9077718  11.1464860   8.5759008  38.2134862  15.7008080
   9.0095515  38.1210151  16.5491135   9.2890589  38.1892362  15.0628096
   2.3086903  41.8136956  17.2341181   2.3623926  42.3827892  18.0018897
   1.4401685  41.9838841  16.8695218   9.4374558  38.2558563  18.2340966
   9.6310448  39.1604373  18.4800241   9.3375176  37.7965982  19.0679551
   4.4989667  38.4065305  23.8081846   4.3475173  38.1775857  22.8911930
   4.4894346  39.3635907  23.8213191   1.2675003  35.9797218  18.7928113
   2.1967063  36.1308378  18.6197080   0.8466033  36.0681239  17.9376759
   1.6168550  39.3829485  13.9515488   1.2818383  39.3430255  14.8473138
   1.1172496  38.7174201  13.4785899   6.2081873  41.4384428  21.8858328
   6.1494419  40.7543648  21.2188911   6.6101392  42.1803418  21.4338954
   6.2099281  39.4024012  20.1172308   5.3226059  39.0649934  20.2398707
   6.7797832  38.6707043  20.3541073   2.8386864  29.1091864  13.2370578
   3.3355563  28.3561826  12.9171648   2.0673845  29.1456180  12.6713787
  10.6916621  34.8132229  14.8788870  10.6806497  35.6956945  14.5082803
   9.8234001  34.4603780  14.6843407   2.1999117  43.9612298  19.2391710
   2.9127090  44.5959763  19.1667611   1.7089146  44.0576164  18.4231712
   3.9216644  37.8663551  10.8109002   2.9872923  37.9865013  10.6413706
   4.0993313  36.9636018  10.5469011   7.3089196  33.7080870  11.3459036
   7.7749648  34.5408862  11.2719338   7.7596696  33.2425852  12.0504294
   5.2805858  26.0761457  15.3849937   4.3668938  26.3065684  15.5532144
   5.7098960  26.1599901  16.2363969   5.0512317  34.2651349  17.8849831
   4.3983767  34.5127257  17.2302284   5.4292697  33.4515487  17.5512308
   4.6933547  41.1399345  24.4622139   5.2373451  41.7529303  23.9677093
   4.1120392  41.6978923  24.9789152   2.9791060  44.2620063  15.5937166
   2.8542200  43.4609803  15.0848112   3.6370151  44.7566256  15.1051136
   5.0425969  42.0629083  17.2216716   4.0956304  41.9434434  17.1495043
   5.3908742  41.1751581  17.3042978   2.0472402  41.8581799  13.4221069
   1.8997364  40.9298507  13.6028639   2.8725895  41.8801890  12.9378144
   5.6506524  42.6810358  14.5085941   6.5753071  42.4753219  14.3710392
   5.4821827  42.4326759  15.4175283   2.0433916  29.7119637   8.4153186
   2.2597531  30.5944275   8.1142014   1.5627983  29.3205850   7.6858828
   0.9157607  26.2277189  13.4459110   0.9379304  26.2916522  12.4911090
   1.3325666  25.3881698  13.6399616  11.2941231  35.9632449  11.4838333
  11.7372377  35.2139774  11.0857456  10.4167741  35.9542585  11.1012065
   8.3268436  39.9662496   8.4932262   8.8519760  40.3049768   7.7681582
   8.2390788  39.0309511   8.3095396   8.0162342  40.5995399  23.7983460
   7.2257885  40.5819538  23.2587959   7.7795696  41.1383693  24.5532496
   8.1360217  37.4487866  21.1116188   8.1858222  37.2837873  22.0531711
   8.0274140  36.5815125  20.7214069   5.4263979  33.4318794  22.4275495
   6.3273842  33.2925258  22.1359493   5.5011954  33.5973248  23.3673673
   9.6378413  39.8684807  21.3558210   9.3463222  40.2314788  22.1921671
   9.0250545  39.1551815  21.1771542  10.8374096  37.4337687  13.8760780
  11.6720987  37.8727491  14.0398340  10.9733225  36.9576340  13.0569026
   7.8865602  34.9917422  19.8238268   8.3619723  35.1845068  19.0157119
   6.9631167  35.0476608  19.5781652   2.4645818  27.0265265  18.7894102
   2.9827762  27.7626292  18.4640590   2.1100951  27.3329259  19.6240861
   2.7158412  23.4465548  14.3094998   2.9960166  22.7788737  14.9355425
   3.5009019  23.6394643  13.7969662   6.5867271  31.8683182  18.0566573
   7.5384694  31.9681279  18.0778798   6.4170721  31.0761450  18.5664658
   4.6081650  28.9538765  18.2425974   4.0131582  29.2343778  17.5472463
   4.3231347  29.4432666  19.0142716   9.0655348  35.0889301  17.1708873
   9.0331669  34.1505302  17.3568557   9.6755972  35.1673338  16.4374698
   9.2149837  31.8800345  17.2167156   8.6988886  31.0958802  17.0297085
  10.0989785  31.5519062  17.3813676   6.8760564  25.6241360  13.1762969
   6.6785385  25.3156449  14.0606301   7.4860269  26.3502999  13.3060899
  14.8831898  36.1505308  16.3114910  15.6135287  35.8890596  16.8722613
  14.2738844  35.4134030  16.3516978  12.9647195  34.2913171  16.9089361
  12.2380359  34.1569136  16.3005853  12.5494482  34.5989999  17.7146079
   0.7877372  38.0103101  24.6736734   1.7080381  38.1881700  24.8676781
   0.7526955  37.0659146  24.5216433   2.6334210  25.5050267  10.9259500
   3.1865249  25.9245721  11.5849523   2.8704297  24.5786015  10.9682456
   6.0113018  27.6150792  10.4338165   5.4311687  28.2735597  10.0516217
   5.7448950  26.7928137  10.0225582   4.4616584  27.0155850  12.6359485
   4.9616362  27.1272385  11.8273804   5.1052192  26.7116903  13.2760293
   4.7937896  29.7750883   9.4894513   3.9063751  30.0600533   9.2714708
   5.2091885  29.6144646   8.6421790   8.1452432  29.7997404  13.2048852
   8.9212822  30.2893856  13.4773469   7.4200566  30.2255458  13.6620722
  10.5824990  30.5125023  14.2622793  11.1769481  30.2720759  13.5516101
  10.6551574  29.7932154  14.8896329   4.7678919  35.2905419   9.7044803
   4.7114121  35.7473970   8.8652435   5.3207262  34.5296103   9.5267646
   8.5783725  31.0795151  10.5294923   8.3220659  30.6791786  11.3603130
   7.9536593  31.7938945  10.4045062  12.8896063  33.8191224  13.0366214
  12.3295621  33.8884413  13.8097776  12.2839566  33.6432209  12.3165710
   2.8159606  38.7859112  26.3250895   3.6850765  38.9599764  25.9637530
   2.3366357  39.6053529  26.2026624   2.6261944  22.5761086  10.8328587
   1.8594339  22.0219572  10.9785270   3.0372649  22.6482954  11.6942739
  14.4752082  50.4947738  15.7296170  15.1130492  50.3754485  15.0259510
  14.3572924  51.4428582  15.7884122  11.2841788  50.4475166  15.6657694
  10.9460299  50.3316231  14.7778229  12.1531556  50.0466331  15.6458700
  14.0293350  48.2199192  12.8049378  14.8156439  47.8018615  12.4539795
  14.2932054  49.1245284  12.9731026  19.4301777  48.1574425  13.7082356
  20.1626949  47.5873642  13.9420186  18.6741133  47.7696025  14.1488862
  11.0477897  50.5801666  10.9045699  10.6836104  50.0532287  11.6158620
  11.9045013  50.1900135  10.7312184  16.9527198  41.8695999  18.1676965
  16.6210522  42.7391410  17.9438180  16.3572811  41.5532283  18.8470995
  16.8455861  46.5891085  15.2470315  15.9372738  46.5206494  14.9529076
  16.7943457  47.0663030  16.0752140  10.9196727  48.0080731  23.1905212
  10.1430061  48.5674651  23.1808077  11.5587290  48.4937514  23.7120082
  18.7117507  44.7907524  17.0248189  18.0691887  45.0840057  16.3787983
  18.2072436  44.6760444  17.8301385  16.3657671  48.5370697   7.7134048
  17.2775527  48.7698084   7.5381746  15.8567318  49.1207741   7.1509127
  11.0029509  47.8967931  18.7228898  11.8490704  48.3207345  18.8663547
  10.9428146  47.2401556  19.4167461  14.1528954  45.5572300  20.3810071
  13.9089886  46.3114360  19.8444347  14.4288884  45.9357647  21.2157318
  13.7093646  44.7128733  15.9623909  12.8478125  45.0109986  16.2540647
  13.7356080  44.9299132  15.0304942   7.9104463  47.9705832  23.5538489
   7.2803123  48.6522113  23.7873886   7.8040551  47.8588914  22.6091627
  25.3119238  51.3221616  13.5794666  24.5582946  50.7529014  13.4238670
  25.4466779  51.2884281  14.5265300   7.1885205  42.2726598  25.9163740
   6.7952151  41.7192797  26.5911384   8.0051346  42.5837177  26.3070258
  10.1053166  43.6884477  23.5083997  10.8462880  44.2891630  23.4288459
  10.3371089  42.9462115  22.9502039  14.0510329  39.7165580  17.7848278
  13.7074599  40.6067222  17.7087389  14.4189292  39.5267238  16.9217863
  11.6007723  44.5523892  11.3505952  10.7449319  44.1630742  11.1711591
  12.0134675  44.6315853  10.4905737  13.1306870  42.0870235  15.7497512
  12.6271665  42.0500371  14.9365317  13.4237477  42.9962978  15.8094168
   9.3749756  42.1708965  14.7563693  10.2402752  41.9751774  14.3969583
   9.4427265  41.9419317  15.6833050  18.9894886  52.4606546   8.2273887
  18.2124329  52.1217705   7.7829049  19.6686367  52.4659169   7.5528852
  13.8046915  47.5801283   8.1180495  13.4997051  47.8947433   8.9690638
  14.7577357  47.6582703   8.1607828   6.9812075  44.4011173  12.1280060
   7.5555827  44.1786354  11.3953253   7.5683057  44.4699868  12.8808662
  16.0391652  50.2884900  12.9344437  16.5523534  50.9214892  13.4366146
  16.6892876  49.6886095  12.5687797   9.2834742  41.2752422  10.8555130
   8.6299155  40.9601439  10.2311744   9.2415217  40.6528162  11.5814953
  12.5172483  47.7634355  15.1802777  11.5995044  47.9849302  15.0224465
  12.9332626  47.8380666  14.3214485  13.3007531  49.1625771  10.3105458
  14.0479349  49.6747168  10.0012580  13.5699120  48.8409824  11.1709851
  15.7486368  46.1982887  12.2924247  15.0109124  45.6860274  12.6234489
  16.0013141  45.7583269  11.4807524  15.8497995  38.9759139  12.8866016
  16.1556872  38.1156503  12.5991931  16.5750600  39.5676760  12.6865010
  10.1219075  49.2712932  13.3942207  10.1767685  48.3186769  13.3184684
   9.3110277  49.4272372  13.8783506  13.6585646  48.3531817  19.9847480
  14.0135034  48.5803290  20.8441946  14.3057778  48.6850193  19.3624735
  19.3883383  51.4750253  10.6896809  19.2501282  51.6651849   9.7617998
  19.0319602  52.2369635  11.1464860   7.5525509  45.4608348  16.7693821
   8.1924889  45.3197107  16.0716784   6.7203040  45.1742861  16.3932423
  19.4152763  53.5426780  15.7008080  19.8489270  53.4502069  16.5491135
  20.1284344  53.5184280  15.0628096   6.0279051  46.8446430  18.7165632
   6.7002105  46.6363792  18.0678281   5.2008838  46.6468516  18.2770865
  11.9304623  43.4708371  20.7331293  11.2832538  44.1698320  20.6395770
  12.7005639  43.9044515  21.1007541   7.7717783  46.8174210  20.7847389
   7.2355140  46.3664949  21.4368985   7.1834492  46.9520119  20.0417853
   3.5056904  45.9530218  17.8700383   3.4215093  45.3455887  17.1350793
   2.6839611  46.4439236  17.8709879  13.6780618  44.4383781  13.2370578
  14.1749318  43.6853744  12.9171648  12.9067600  44.4748098  12.6713787
  21.5310376  50.1424147  14.8788870  21.5200252  51.0248862  14.5082803
  20.6627755  49.7895698  14.6843407  10.2615587  46.5801164  12.9642263
   9.8913374  46.0272205  13.6523168  10.7574679  45.9759298  12.4117263
  18.1482950  49.0372788  11.3459036  18.6143402  49.8700779  11.2719338
  18.5990451  48.5717769  12.0504294  16.1199613  41.4053375  15.3849937
  15.2062693  41.6357602  15.5532144  16.5492714  41.4891819  16.2363969
  15.8906071  49.5943267  17.8849831  15.2377522  49.8419174  17.2302284
  16.2686451  48.7807405  17.5512308  11.9393644  50.3363078  24.3715868
  11.2634282  50.2357207  25.0418243  12.7621278  50.1802292  24.8351865
   5.6580921  43.9905155  19.2095369   5.7222247  44.8519986  18.7972767
   5.5948041  43.3779157  18.4767727   5.1333193  46.0628288  22.8568403
   5.7605232  45.6805365  23.4705927   4.2761112  45.8442490  23.2224096
   5.4392983  45.9460713  14.7714307   4.7179569  46.5596681  14.6321780
   6.2286239  46.4818478  14.6930952   8.2419296  43.2815140  21.0454958
   8.7653698  43.5277436  21.8081268   8.0231630  44.1135175  20.6258096
   9.4471841  44.2228835  18.7304629   9.1068662  43.4236648  19.1325309
   8.7410848  44.5230546  18.1581462  10.0988313  41.3078147  17.1831952
  10.9214383  40.8338626  17.0610842  10.3426377  42.0868631  17.6830638
  12.8827671  45.0411555   8.4153186  13.0991285  45.9236193   8.1142014
  12.4021738  44.6497768   7.6858828   7.6226892  47.9997268  14.9923930
   7.4771473  48.3137571  15.8848212   7.1452096  48.6182168  14.4394829
   9.4823275  44.9899816  15.0404820   9.4684844  44.0940909  14.7037118
  10.1995703  44.9970480  15.6743106  11.3349406  45.4237156  17.0857947
  11.0767183  46.3454227  17.0842278  10.8034446  45.0267591  17.7758412
   8.8860171  43.8714196  10.3092390   9.0076082  42.9430842  10.5083278
   8.5962213  43.8852882   9.3970706  11.7551361  41.5569107  13.4459110
  11.7773058  41.6208440  12.4911090  12.1719420  40.7173615  13.6399616
  22.1334986  51.2924366  11.4838333  22.5766132  50.5431691  11.0857456
  21.2561496  51.2834503  11.1012065   8.3701250  45.3846194  24.5182323
   8.4189406  46.2608316  24.1360092   8.9123765  44.8423587  23.9453966
  18.9753971  52.7779783  21.1116188  19.0251976  52.6129791  22.0531711
  18.8667894  51.9107042  20.7214069  16.2657734  48.7610711  22.4275495
  17.1667596  48.6217176  22.1359493  16.3405708  48.9265166  23.3673673
  10.6000539  46.1377566  21.2728681   9.7303848  46.4311132  21.0011270
  10.8360019  46.7218011  21.9935945  21.6767850  52.7629605  13.8760780
  22.5114742  53.2019409  14.0398340  21.8126979  52.2868258  13.0569026
  18.7259356  50.3209339  19.8238268  19.2013478  50.5136986  19.0157119
  17.8024922  50.3768525  19.5781652  13.3039573  42.3557183  18.7894102
  13.8221517  43.0918210  18.4640590  12.9494705  42.6621176  19.6240861
  13.5552167  38.7757465  14.3094998  13.8353921  38.1080655  14.9355425
  14.3402774  38.9686561  13.7969662  17.4261025  47.1975099  18.0566573
  18.3778448  47.2973197  18.0778798  17.2564476  46.4053368  18.5664658
  15.4475405  44.2830683  18.2425974  14.8525337  44.5635695  17.5472463
  15.1625101  44.7724584  19.0142716  19.9049103  50.4181219  17.1708873
  19.8725423  49.4797220  17.3568557  20.5149727  50.4965256  16.4374698
  20.0543591  47.2092263  17.2167156  19.5382640  46.4250719  17.0297085
  20.9383540  46.8810979  17.3813676  17.7154318  40.9533278  13.1762969
  17.5179140  40.6448366  14.0606301  18.3254024  41.6794917  13.3060899
  25.7225653  51.4797226  16.3114910  26.4529041  51.2182514  16.8722613
  25.1132598  50.7425948  16.3516978  23.8040950  49.6205089  16.9089361
  23.0774114  49.4861053  16.3005853  23.3888237  49.9281917  17.7146079
  11.5437417  41.7564138   9.3035204  10.7338145  41.4111223   9.6790450
  12.2321834  41.4471682   9.8922815  13.4727965  40.8342185  10.9259500
  14.0259004  41.2537638  11.5849523  13.7098051  39.9077933  10.9682456
   9.4961064  46.8229259  26.7062264   9.3957791  47.7723616  26.6374355
   9.2782606  46.4947498  25.8338334  16.8506772  42.9442710  10.4338165
  16.2705441  43.6027514  10.0516217  16.5842705  42.1220055  10.0225582
  15.3010338  42.3447768  12.6359485  15.8010117  42.4564302  11.8273804
  15.9445946  42.0408821  13.2760293  15.6331650  45.1042801   9.4894513
  14.7457505  45.3892451   9.2714708  16.0485639  44.9436564   8.6421790
  18.9846186  45.1289322  13.2048852  19.7606576  45.6185774  13.4773469
  18.2594320  45.5547376  13.6620722  21.4218745  45.8416941  14.2622793
  22.0163236  45.6012677  13.5516101  21.4945329  45.1224071  14.8896329
  15.6072674  50.6197336   9.7044803  15.5507875  51.0765888   8.8652435
  16.1601016  49.8588021   9.5267646  19.4177480  46.4087068  10.5294923
  19.1614414  46.0083704  11.3603130  18.7930348  47.1230862  10.4045062
  23.7289818  49.1483142  13.0366214  23.1689376  49.2176331  13.8097776
  23.1233321  48.9724126  12.3165710   9.6503579  41.3110227   6.5782651
   9.6382248  42.2552067   6.7350921  10.5427000  41.1280372   6.2842112
  13.4655698  37.9053003  10.8328587  12.6988094  37.3511490  10.9785270
  13.8766403  37.9774872  11.6942739   5.4697459  44.1937799  24.9233769
   6.3328921  43.8374604  25.1337093   4.8962870  43.8551694  25.6109173
  26.6891749  54.3051057  12.8866016  26.9950626  53.4448420  12.5991931
  27.4144354  54.8968677  12.6865010  24.3945921  54.1049383  14.3094998
  24.6747675  53.4372572  14.9355425  25.1796528  54.2978479  13.7969662
  28.5548073  56.2825196  13.1762969  28.3572894  55.9740284  14.0606301
  29.1647778  57.0086835  13.3060899  24.3049453  53.2344921  10.8328587
  23.5381848  52.6803408  10.9785270  24.7160158  53.3066790  11.6942739
   4.6933548  18.1461468  11.1867445   5.2373452  18.7591426  10.6922400
   4.1120393  18.7041046  11.7034458   8.0162343  17.6057522  10.5228766
   7.2257887  17.5881661   9.9833266   7.7795697  18.1445815  11.2777803
   2.8159607  15.7921235  13.0496202   3.6850767  15.9661887  12.6882837
   2.3366359  16.6115651  12.9271931  14.4752083  27.5009860   2.4541476
  15.1130493  27.3816608   1.7504816  14.3572926  28.4490704   2.5129428
  11.2841789  27.4537289   2.3903001  10.9460301  27.3378353   1.5023536
  12.1531557  27.0528454   2.3704007  11.7661572  28.6072140   8.3489206
  11.7550213  28.2124939   7.4769710  11.9282212  27.8738213   8.9422978
   8.4868833  31.3909252   7.2968390   8.1958699  32.2954883   7.1815057
   9.1225818  31.4325780   8.0112460   9.4125040  28.7686101   3.8869750
  10.0088612  28.5442123   3.1726713   9.4700012  28.0270846   4.4895198
  19.4301778  25.1636548   0.4327663  20.1626950  24.5935764   0.6665492
  18.6741134  24.7758148   0.8734168  16.9527199  18.8758122   4.8922271
  16.6210524  19.7453533   4.6683486  16.3572812  18.5594406   5.5716302
  13.4458718  31.0770668   4.2918184  13.1459441  31.9795706   4.1833991
  13.1009778  30.8102851   5.1439337  16.8455862  23.5953208   1.9715621
  15.9372739  23.5268616   1.6774382  16.7943458  24.0725153   2.7997447
  10.9196728  25.0142853   9.9150519  10.1430062  25.5736774   9.9053383
  11.5587291  25.4999636  10.4365389  18.7117509  21.7969646   3.7493495
  18.0691889  22.0902179   3.1033290  18.2072437  21.6822567   4.5546692
   9.1743100  27.8228307   9.4768486   9.9157785  28.3613351   9.2003309
   8.4680086  28.4494595   9.6340038  14.6498440  29.9657447   8.0740647
  15.0581796  29.5239858   7.3295280  13.9275701  29.3910075   8.3274840
  11.0029510  24.9030054   5.4474204  11.8490705  25.3269468   5.5908853
  10.9428148  24.2463678   6.1412767  14.9727254  30.5258638   1.8292936
  14.3436117  30.6904352   1.1269004  14.5852917  30.9400247   2.6003900
  18.8516486  31.4613076  -0.8162700  18.1667525  31.8411977  -1.3665667
  18.9360336  32.0708402  -0.0830752  14.1528955  22.5634422   7.1055378
  13.9089887  23.3176483   6.5689654  14.4288886  22.9419770   7.9402625
  16.1067418  29.1073035   5.7832643  16.3184313  29.7504795   5.1067024
  16.0597166  28.2735351   5.3154573   7.4179297  29.8104527   2.0322784
   7.9880654  30.2391796   1.3940269   8.0087409  29.5287112   2.7306970
   7.9104464  24.9767955  10.2783796   7.2803125  25.6584236  10.5119193
   7.8040552  24.8651037   9.3336934  17.2213246  31.9844990   3.9555001
  18.0430690  31.5825177   3.6737682  17.2175649  31.8813224   4.9071117
  10.9869849  31.5329033   6.1115711  11.0514282  31.9949441   6.9473883
  10.2780773  30.9026398   6.2398021  25.3119239  28.3283739   0.3039972
  24.5582947  27.7591137   0.1483977  25.4466780  28.2946403   1.2510607
   7.1885207  19.2788721  12.6409047   6.7952152  18.7254919  13.3156691
   8.0051347  19.5899299  13.0315564  10.1053168  20.6946600  10.2329303
  10.8462881  21.2953753  10.1533766  10.3371090  19.9524238   9.6747346
   5.2494506  25.8802967   8.5107533   5.1348021  24.9788224   8.8114632
   4.3939023  26.1266664   8.1592350  12.3286343  33.8220707  10.1095034
  11.8850198  33.0357086   9.7915938  12.9903557  34.0099858   9.4438924
  14.4267581  34.1023507   8.1376435  14.4086057  34.9232388   7.6456704
  15.3487502  33.9777583   8.3626576  10.8840636  31.6167637   8.9799943
  11.4168972  30.8555925   8.7499251  10.3554717  31.3241289   9.7224098
  17.2286194  28.9402650   1.6085802  16.5709869  29.6301911   1.6965930
  18.0326594  29.3299082   1.9519788  16.8053449  32.2753024  -2.2131114
  16.3515776  31.4343934  -2.1565924  16.1747416  32.9114422  -1.8756334
  15.2486389  34.1129521  -1.2781296  15.5409363  34.6734578  -1.9968930
  15.7585009  34.4058082  -0.5228137  13.6585648  25.3593939   6.7092787
  14.0135035  25.5865412   7.5687252  14.3057779  25.6912316   6.0870042
  19.4152764  30.5488902   2.4253387  19.8489271  30.4564191   3.2736441
  20.1284345  30.5246403   1.7873403  13.1480659  34.1490996   3.9586488
  13.2017681  34.7181933   4.7264204  12.2795440  34.3192881   3.5940525
  20.2768314  30.5912603   4.9586273  20.4704204  31.4958413   5.2045547
  20.1768932  30.1320022   5.7924858  11.9304624  20.4770493   7.4576600
  11.2832539  21.1760443   7.3641076  12.7005640  20.9106637   7.8252848
  15.3383422  30.7419346  10.5327153  15.1868929  30.5129897   9.6157237
  15.3288102  31.6989947  10.5458498  12.1068759  28.3151258   5.5173420
  13.0360819  28.4662418   5.3442387  11.6859789  28.4035279   4.6622066
  10.9057091  32.3401923   3.2871957  10.7668176  31.9720707   4.1597895
  10.1171687  32.8549562   3.1155915  12.4562306  31.7183525   0.6760795
  12.1212138  31.6784295   1.5718445  11.9566251  31.0528241   0.2031205
   6.4306550  27.1251155   6.2013376   6.2926348  26.3931394   6.8024915
   7.3411473  27.0360056   5.9197564   9.0588850  26.8371115   5.6897056
   9.7688469  26.1964307   5.6483674   9.0158159  27.0884010   6.6123237
  17.0475629  33.7738468   8.6103635  16.9888175  33.0897688   7.9434218
  17.4495147  34.5157458   8.1584261   7.7717784  23.8236333   7.5092695
   7.2355141  23.3727071   8.1614292   7.1834493  23.9582241   6.7663160
  17.0493036  31.7378052   6.8417615  16.1619815  31.4003974   6.9644014
  17.6191587  31.0061083   7.0786380  10.5794190  36.3979504   3.8078858
  10.5064361  37.2034476   4.3198162  10.1371583  36.5971470   2.9826879
  21.5310377  27.1486269   1.6034176  21.5200253  28.0310985   1.2328109
  20.6627756  26.7957820   1.4088713  13.0392873  36.2966338   5.9637017
  13.7520845  36.9313803   5.8912918  12.5482902  36.3930204   5.1477018
   8.0904787  34.0460782   6.7842587   8.7914246  34.6797265   6.9371982
   7.6199902  34.3875513   6.0238227  15.8906073  26.6005389   4.6095138
  15.2377523  26.8481297   3.9547590  16.2686453  25.7869528   4.2757615
  11.9393646  27.3425200  11.0961175  11.2634283  27.2419330  11.7663550
  12.7621280  27.1864414  11.5597172  10.6816429  38.6492128   5.3318791
  11.2334737  38.8123749   6.0967876  11.0222622  39.2396566   4.6598816
   5.1333194  23.0690410   9.5813710   5.7605233  22.6867488  10.1951234
   4.2761113  22.8504612   9.9469402  15.5327303  33.4753385  11.1867445
  16.0767207  34.0883344  10.6922400  14.9514148  34.0332964  11.7034458
  13.8184816  36.5974103   2.3182473  13.6935955  35.7963843   1.8093418
  14.4763907  37.0920297   1.8296443  15.8819724  34.3983123   3.9462023
  14.9350060  34.2788475   3.8740350  16.2302497  33.5105621   4.0288284
   8.2419298  20.2877262   7.7700265   8.7653699  20.5339559   8.5326574
   8.0231631  21.1197297   7.3503402  12.8866158  34.1935840   0.1466375
  12.7391120  33.2652547   0.3273945  13.7119651  34.2155930  -0.3376550
  16.4900279  35.0164398   1.2331248  17.4146827  34.8107260   1.0955699
  16.3215583  34.7680800   2.1420589  22.1334987  28.2986489  -1.7916361
  22.5766133  27.5493814  -2.1897238  21.2561497  28.2896625  -2.1742629
   2.8838577  26.6734631   7.5487055   2.1420313  26.8217267   8.1351686
   2.5631322  26.9342897   6.6853805  10.8282240  36.2150609   7.3467445
  11.1369366  35.9699756   8.2190145  11.6257722  36.4197248   6.8586315
   8.3701252  22.3908316  11.2427629   8.4189407  23.2670439  10.8605399
   8.9123766  21.8485709  10.6699273  18.8556097  32.9349439  10.5228766
  18.0651641  32.9173578   9.9833266  18.6189452  33.4737733  11.2777803
  18.9753972  29.7841906   7.8361495  19.0251977  29.6191913   8.7777018
  18.8667896  28.9169165   7.4459376  16.2657735  25.7672834   9.1520802
  17.1667598  25.6279299   8.8604799  16.3405709  25.9327289  10.0918979
  10.6000540  23.1439689   7.9973988   9.7303849  23.4373255   7.7256577
  10.8360020  23.7280134   8.7181252  20.4772169  32.2038847   8.0803517
  20.1856977  32.5668828   8.9166977  19.8644300  31.4905856   7.9016849
  21.6767852  29.7691727   0.6006087  22.5114743  30.2081531   0.7643647
  21.8126980  29.2930380  -0.2185667  18.7259357  27.3271462   6.5483575
  19.2013479  27.5199108   5.7402426  17.8024923  27.3830648   6.3026958
  13.3039574  19.3619306   5.5139408  13.8221518  20.0980332   5.1885897
  12.9494707  19.6683299   6.3486168  17.4261026  24.2037222   4.7811880
  18.3778449  24.3035320   4.8024104  17.2564477  23.4115491   5.2909964
  15.4475406  21.2892805   4.9671281  14.8525338  21.5697818   4.2717770
  15.1625103  21.7786706   5.7388022  19.9049104  27.4243342   3.8954180
  19.8725424  26.4859342   4.0813864  20.5149728  27.5027378   3.1620005
  20.0543593  24.2154385   3.9412463  19.5382641  23.4312842   3.7542392
  20.9383541  23.8873102   4.1058982  25.7225654  28.4859349   3.0360217
  26.4529043  28.2244637   3.5967920  25.1132600  27.7488071   3.0762285
  23.8040951  26.6267211   3.6334668  23.0774115  26.4923176   3.0251159
  23.3888238  26.9344040   4.4391386  11.6271128  30.3457141  11.3982041
  12.5474137  30.5235740  11.5922087  11.5920711  29.4013186  11.2461740
   4.6233200  28.2558175   4.0404822   4.8419210  29.1875283   4.0592856
   5.0358974  27.8966150   4.8259626   9.4961065  23.8291381  13.4307571
   9.3957792  24.7785738  13.3619662   9.2782608  23.5009620  12.5583641
   9.3592336  27.2588520  12.2472633   8.8759417  28.0588880  12.4536522
   9.4453275  27.2696465  11.2940077   5.2865673  31.1493055   4.2841066
   6.2408927  31.1176997   4.2170998   5.0878197  30.6883679   5.0991292
   5.8765055  29.7194171   6.8511864   6.6957944  30.2138250   6.8746701
   6.1501863  28.8026139   6.8229431  21.4218746  22.8479063   0.9868099
  22.0163237  22.6074799   0.2761408  21.4945330  22.1286194   1.6141636
  23.7289819  26.1545264  -0.2388479  23.1689377  26.2238454   0.5343083
  23.1233322  25.9786249  -0.9588983   1.1299969  24.0532305   7.5504061
   1.7758833  23.5431259   8.0391286   0.9217121  24.7900986   8.1247486
  13.6553362  31.1213152  13.0496202  14.5244521  31.2953804  12.6882837
  13.1760113  31.9407569  12.9271931   5.4697460  21.1999922  11.6479075
   6.3328922  20.8436727  11.8582400   4.8962871  20.8613817  12.3354480
  22.1235544  42.7829206   2.3903001  21.7854055  42.6670271   1.5023536
  22.9925312  42.3820371   2.3704007  22.6055327  43.9364058   8.3489206
  22.5943967  43.5416856   7.4769710  22.7675966  43.2030131   8.9422978
  19.3262588  46.7201170   7.2968390  19.0352454  47.6246801   7.1815057
  19.9619572  46.7617697   8.0112460  20.2518795  44.0978018   3.8869750
  20.8482367  43.8734041   3.1726713  20.3093766  43.3562764   4.4895198
  27.7920953  34.2050039   4.8922271  27.4604278  35.0745450   4.6683486
  27.1966567  33.8886323   5.5716302  24.2852473  46.4062585   4.2918184
  23.9853196  47.3087624   4.1833991  23.9403532  46.1394768   5.1439337
  27.6849617  38.9245125   1.9715621  26.7766494  38.8560534   1.6774382
  27.6337212  39.4017070   2.7997447  21.7590482  40.3434771   9.9150519
  20.9823816  40.9028691   9.9053383  22.3981045  40.8291554  10.4365389
  29.5511263  37.1261564   3.7493495  28.9085643  37.4194097   3.1033290
  29.0466192  37.0114484   4.5546692  20.0136855  43.1520224   9.4768486
  20.7551539  43.6905268   9.2003309  19.3073840  43.7786513   9.6340038
  25.4892194  45.2949365   8.0740647  25.8975550  44.8531775   7.3295280
  24.7669456  44.7201992   8.3274840  21.8423264  40.2321972   5.4474204
  22.6884460  40.6561385   5.5908853  21.7821902  39.5755596   6.1412767
  24.9922710  37.8926340   7.1055378  24.7483642  38.6468401   6.5689654
  25.2682640  38.2711688   7.9402625  26.9461172  44.4364952   5.7832643
  27.1578068  45.0796712   5.1067024  26.8990921  43.6027269   5.3154573
  24.5487401  37.0482773   2.6869216  23.6871880  37.3464027   2.9785953
  24.5749836  37.2653172   1.7550248  18.2573052  45.1396445   2.0322784
  18.8274409  45.5683714   1.3940269  18.8481164  44.8579030   2.7306970
  18.7498218  40.3059873  10.2783796  18.1196879  40.9876153  10.5119193
  18.6434306  40.1942954   9.3336934  21.8263604  46.8620951   6.1115711
  21.8908036  47.3241358   6.9473883  21.1174528  46.2318316   6.2398021
  12.3280894  40.2262159   3.6364711  12.5788932  41.1109169   3.9022287
  12.8640442  40.0466761   2.8639803  18.0278961  34.6080638  12.6409047
  17.6345907  34.0546837  13.3156691  18.8445101  34.9191217  13.0315564
  20.9446922  36.0238518  10.2329303  21.6856636  36.6245671  10.1533766
  21.1764845  35.2816155   9.6747346  16.0888260  41.2094885   8.5107533
  15.9741775  40.3080142   8.8114632  15.2332778  41.4558582   8.1592350
  23.1680098  49.1512625  10.1095034  22.7243952  48.3649004   9.7915938
  23.8297311  49.3391776   9.4438924  25.2661336  49.4315425   8.1376435
  25.2479811  50.2524306   7.6456704  26.1881256  49.3069500   8.3626576
  21.7234390  46.9459555   8.9799943  22.2562727  46.1847843   8.7499251
  21.1948471  46.6533206   9.7224098  24.8904085  32.0519620   4.5093585
  24.5468354  32.9421262   4.4332696  25.2583048  31.8621278   3.6463170
  23.9700625  34.4224276   2.4742818  23.4665421  34.3854411   1.6610624
  24.2631232  35.3317018   2.5339475  20.2143511  34.5063005   1.4809000
  21.0796508  34.3105814   1.1214890  20.2821020  34.2773357   2.4078357
  17.8205830  36.7365213  -1.1474633  18.3949582  36.5140395  -1.8801440
  18.4076813  36.8053908  -0.3946032  20.1228498  33.6106462  -2.4199564
  19.4692910  33.2955479  -3.0442949  20.0808972  32.9882203  -1.6939741
  23.3566239  40.0988396   1.9048084  22.4388800  40.3203343   1.7469772
  23.7726382  40.1734706   1.0459791  26.6891751  31.3113180  -0.3888677
  26.9950628  30.4510543  -0.6762762  27.4144356  31.9030800  -0.5889683
  20.9612830  41.6066973   0.1187514  21.0161440  40.6540809   0.0429990
  20.1504033  41.7626412   0.6028812  24.4979402  40.6885857   6.7092787
  24.8528790  40.9157330   7.5687252  25.1451533  41.0204234   6.0870042
  18.3919265  37.7962388   3.4939128  19.0318644  37.6551147   2.7962091
  17.5596796  37.5096901   3.1177730  16.8672807  39.1800470   5.4410939
  17.5395860  38.9717832   4.7923588  16.0402593  38.9822556   5.0016171
  22.7698379  35.8062411   7.4576600  22.1226294  36.5052361   7.3641076
  23.5399394  36.2398555   7.8252848  26.1777177  46.0711263  10.5327153
  26.0262683  45.8421815   9.6157237  26.1681856  47.0281865  10.5458498
  22.9462513  43.6443176   5.5173420  23.8754573  43.7954336   5.3442387
  22.5253543  43.7327197   4.6622066  17.2700304  42.4543073   6.2013376
  17.1320102  41.7223312   6.8024915  18.1805228  42.3651973   5.9197564
  19.8982605  42.1663032   5.6897056  20.6082223  41.5256225   5.6483674
  19.8551913  42.4175927   6.6123237  27.8869384  49.1030386   8.6103635
  27.8281930  48.4189606   7.9434218  28.2888902  49.8449376   8.1584261
  18.6111539  39.1528250   7.5092695  18.0748896  38.7018989   8.1614292
  18.0228247  39.2874159   6.7663160  27.8886791  47.0669970   6.8417615
  27.0013570  46.7295892   6.9644014  28.4585342  46.3353001   7.0786380
  14.3450660  38.2884258   4.5945690  14.2608849  37.6809928   3.8596100
  13.5233366  38.7793276   4.5955186  24.5174374  36.7737822  -0.0384115
  25.0143073  36.0207784  -0.3583045  23.7461355  36.8102138  -0.6040906
  21.1009343  38.9155205  -0.3112431  20.7307130  38.3626245   0.3768475
  21.5968435  38.3113338  -0.8637431  18.9298541  49.3752700   6.7842587
  19.6308001  50.0089183   6.9371982  18.4593656  49.7167431   6.0238227
  26.9593369  33.7407415   2.1095244  26.0456449  33.9711642   2.2777451
  27.3886470  33.8245859   2.9609276  26.7299827  41.9297307   4.6095138
  26.0771277  42.1773214   3.9547590  27.1080207  41.1161445   4.2757615
  22.7787400  42.6717118  11.0961175  22.1028037  42.5711247  11.7663550
  23.6015034  42.5156332  11.5597172  16.4974676  36.3259195   5.9340675
  16.5616003  37.1874026   5.5218073  16.4341797  35.7133197   5.2013034
  15.9726949  38.3982328   9.5813710  16.5998988  38.0159405  10.1951234
  15.1154868  38.1796530   9.9469402  26.3721057  48.8045303  11.1867445
  26.9160961  49.4175261  10.6922400  25.7907902  49.3624881  11.7034458
  16.2786739  38.2814754   1.4959613  15.5573324  38.8950721   1.3567086
  17.0679994  38.8172518   1.4176259  19.0813052  35.6169180   7.7700265
  19.6047454  35.8631477   8.5326574  18.8625385  36.4489215   7.3503402
  20.2865597  36.5582875   5.4549935  19.9462418  35.7590688   5.8570615
  19.5804603  36.8584586   4.8826769  20.9382069  33.6432188   3.9077258
  21.7608138  33.1692666   3.7856149  21.1820133  34.4222671   4.4075945
  18.4620648  40.3351308   1.7169237  18.3165228  40.6491611   2.6093519
  17.9845851  40.9536209   1.1640136  20.3217031  37.3253856   1.7650127
  20.3078599  36.4294950   1.4282425  21.0389459  37.3324520   2.3988413
  22.1743161  37.7591196   3.8103254  21.9160939  38.6808267   3.8087584
  21.6428202  37.3621631   4.5003718  19.7253927  36.2068236  -2.9662303
  19.8469838  35.2784883  -2.7671416  19.4355969  36.2206922  -3.8783988
  22.5945117  33.8923147   0.1704417  22.6166814  33.9562480  -0.7843604
  23.0113176  33.0527656   0.3644923  13.7232332  42.0026549   7.5487055
  12.9814068  42.1509184   8.1351686  13.4025076  42.2634814   6.6853805
  21.6675994  51.5442527   7.3467445  21.9763121  51.2991674   8.2190145
  22.4651476  51.7489166   6.8586315  19.2095006  37.7200234  11.2427629
  19.2583162  38.5962357  10.8605399  19.7517520  37.1777627  10.6699273
  29.6949852  48.2641357  10.5228766  28.9045396  48.2465496   9.9833266
  29.4583206  48.8029651  11.2777803  29.8147727  45.1133823   7.8361495
  29.8645732  44.9483831   8.7777018  29.7061650  44.2461083   7.4459376
  27.1051489  41.0964752   9.1520802  28.0061352  40.9571216   8.8604799
  27.1799464  41.2619206  10.0918979  21.4394295  38.4731606   7.9973988
  20.5697604  38.7665172   7.7256577  21.6753775  39.0572051   8.7181252
  31.3165924  47.5330765   8.0803517  31.0250732  47.8960746   8.9166977
  30.7038055  46.8197773   7.9016849  29.5653112  42.6563380   6.5483575
  30.0407234  42.8491026   5.7402426  28.6418677  42.7122565   6.3026958
  24.1433328  34.6911223   5.5139408  24.6615272  35.4272250   5.1885897
  23.7888461  34.9975216   6.3486168  24.3945923  31.1111506   1.0340305
  24.6747676  30.4434695   1.6600732  25.1796530  31.3040601   0.5214969
  28.2654781  39.5329140   4.7811880  29.2172204  39.6327237   4.8024104
  28.0958231  38.7407408   5.2909964  26.2869160  36.6184723   4.9671281
  25.6919093  36.8989736   4.2717770  26.0018857  37.1078624   5.7388022
  30.8937347  39.5446303   3.9412463  30.3776396  38.7604759   3.7542392
  31.7777296  39.2165019   4.1058982  28.5548074  33.2887318  -0.0991724
  28.3572895  32.9802407   0.7851608  29.1647780  34.0148957   0.0306205
  22.4664882  45.6749058  11.3982041  23.3867892  45.8527658  11.5922087
  22.4314465  44.7305104  11.2461740  15.4626955  43.5850093   4.0404822
  15.6812964  44.5167201   4.0592856  15.8752728  43.2258068   4.8259626
  22.3831172  34.0918178  -3.9719490  21.5731901  33.7465263  -3.5964244
  23.0715589  33.7825722  -3.3831878  24.3121721  33.1696225  -2.3495193
  24.8652759  33.5891679  -1.6905170  24.5491807  32.2431973  -2.3072237
  20.3354820  39.1583299  13.4307571  20.2351547  40.1077656  13.3619662
  20.1176362  38.8301538  12.5583641  26.1404094  34.6801808  -0.6395208
  26.6403873  34.7918343  -1.4480890  26.7839702  34.3762861   0.0005600
  20.1986090  42.5880438  12.2472633  19.7153172  43.3880798  12.4536522
  20.2847029  42.5988383  11.2940077  16.1259428  46.4784972   4.2841066
  17.0802681  46.4468915   4.2170998  15.9271951  46.0175596   5.0991292
  16.7158810  45.0486089   6.8511864  17.5351699  45.5430167   6.8746701
  16.9895617  44.1318057   6.8229431  11.9693724  39.3824222   7.5504061
  12.6152587  38.8723176   8.0391286  11.7610875  40.1192904   8.1247486
  24.4947116  46.4505070  13.0496202  25.3638276  46.6245722  12.6882837
  24.0153868  47.2699487  12.9271931  24.3049454  30.2407044  -2.4426106
  23.5381850  29.6865530  -2.2969424  24.7160159  30.3128912  -1.5811954
  16.3091215  36.5291839  11.6479075  17.1722676  36.1728644  11.8582400
  15.7356626  36.1905734  12.3354480  28.8672716  49.9372556  12.6409047
  28.4739661  49.3838755  13.3156691  29.6838856  50.2483135  13.0315564
  26.8120703  53.7274246   9.5813710  27.4392742  53.3451323  10.1951234
  25.9548622  53.5088447   9.9469402  30.0488761  53.0492152  11.2427629
  30.0976916  53.9254274  10.8605399  30.5911275  52.5069545  10.6699273
  31.1748574  54.4875217  13.4307571  31.0745301  55.4369574  13.3619662
  30.9570117  54.1593456  12.5583641  27.1484969  51.8583757  11.6479075
  28.0116431  51.5020562  11.8582400  26.5750380  51.5197652  12.3354480
  26.3721059  25.8107426  -2.0887248  26.9160963  26.4237384  -2.5832293
  25.7907904  26.3687004  -1.5720235  29.6949853  25.2703480  -2.7525927
  28.9045397  25.2527619  -3.2921427  29.4583208  25.8091773  -1.9976890
  24.4947117  23.4567192  -0.2258492  25.3638277  23.6307845  -0.5871857
  24.0153869  24.2761609  -0.3482762  28.8672717  26.9434679  -0.6345647
  28.4739662  26.3900877   0.0401998  29.6838857  27.2545257  -0.2439129
  26.8120705  30.7336368  -3.6940984  27.4392743  30.3513445  -3.0803459
  25.9548623  30.5150570  -3.3285291  30.0488762  30.0554274  -2.0327064
  30.0976917  30.9316397  -2.4149294  30.5911276  29.5131667  -2.6055421
  31.1748576  31.4937339   0.1552878  31.0745303  32.4431696   0.0864969
  30.9570118  31.1655578  -0.7171052  27.1484971  28.8645880  -1.6275618
  28.0116432  28.5082685  -1.4172294  26.5750381  28.5259775  -0.9400214
  55.3679997  55.3679997  55.3679997 109.4712190 109.4712190 109.4712190
