default_name
 10983
  21.0693529  26.7616891  36.7557063  21.2445635  26.0957235  35.9107856
  21.0696696  25.0645997  36.2178595  22.2744192  26.2031678  35.5702685
  20.3078541  26.4247456  34.7466464  19.4921388  27.3416048  34.8411115
  21.3509062  26.4653327  33.9246482  22.0183245  25.7073027  33.9181107
  21.5920932  27.6063716  33.0492437  20.8468369  28.3800620  33.2305892
  22.9702968  28.2112822  33.3268048  23.3639299  27.7219373  34.2176997
  23.6054909  27.9757750  32.4728933  22.9497207  29.7079623  33.5416958
  22.9175019  30.2445949  34.8229536  22.9075467  29.5725084  35.6682829
  22.8983568  31.6110869  35.0262688  22.8736690  32.0077875  36.0308528
  22.9115782  32.4610307  33.9409372  22.8924786  33.8227588  34.1387475
  22.9433896  33.9957601  35.0919461  22.9431736  31.9540621  32.6559832
  22.9527342  32.6181073  31.8048936  22.9614262  30.5845581  32.4654404
  22.9861286  30.1799335  31.4646259  21.4884647  27.1887639  31.5868323
  21.5842014  26.0045290  31.2660222  21.2919822  28.1677803  30.7099678
  21.1476142  29.1135309  31.0337163  21.2321277  27.9111962  29.2749654
  20.8340031  26.9140945  29.0913162  20.3045656  28.9170234  28.5893933
  20.1607137  28.6094849  27.5536202  19.3444151  28.9143591  29.1053428
  20.8544697  30.2228422  28.6221162  20.1826453  30.7944324  28.9444555
  22.6256938  27.9812274  28.6612723  23.4950047  28.6933430  29.1642981
  22.8268436  27.2384013  27.5772948  21.8438756  26.4449194  26.8930548
  20.8859208  26.9575799  26.9802438  21.7867235  25.4807926  27.3983194
  22.2988186  26.3196935  25.4812374  21.9315697  27.1412587  24.8662107
  21.9888845  25.3712851  25.0424166  23.7812459  26.3755437  25.6358956
  24.2227287  26.7050379  24.6953503  24.2530507  25.4451398  25.9518836
  23.9772553  27.4501899  26.7070267  24.9014586  27.3003990  27.2672015
  23.9836631  28.8764406  26.1665281  23.6035050  29.1111553  25.0203475
  24.4172115  29.8169615  26.9990977  24.6102725  29.5876412  27.9635866
  24.5955552  31.1981636  26.5680369  24.5390528  31.2602775  25.4814384
  23.5038681  32.1166482  27.1482086  23.8628577  33.1465412  27.1587358
  22.2462820  32.0530311  26.2951071  21.4845700  32.7082783  26.7206972
  21.8729031  31.0283848  26.2733806  22.4787360  32.3774605  25.2794434
  23.1907381  31.7063084  28.4849763  22.9529352  30.7980378  28.4434045
  25.9640405  31.7188552  26.9954270  26.7333797  32.2061220  26.1677216
  26.2556248  31.6103772  28.2874054  25.6434463  31.0910968  28.9003366
  27.4224448  32.2646013  28.8678776  27.9844079  32.7816814  28.0893182
  26.9932130  33.3064518  29.9024585  26.1936232  32.8845039  30.5113226
  27.8478560  33.5402273  30.5373082  26.5335822  34.4908747  29.2745563
  26.6239834  35.1853116  29.9018002  28.3471176  31.2365749  29.5105096
  27.9340863  30.4965554  30.4029429  29.5933920  31.2006298  29.0499869
  30.0658491  31.8945259  27.8836882  30.0617929  32.9601723  28.1127767
  29.3619019  31.6943939  27.0759107  31.4340061  31.3772153  27.5873420
  32.1196036  32.1694558  27.2866593  31.4243645  30.5973719  26.8258614
  31.8008493  30.8161553  28.9190149  32.0521249  31.6810284  29.5329807
  32.6263475  30.1046498  28.9393161  30.5273447  30.1536736  29.4498483
  30.2430160  29.2066380  28.9916489  30.5060726  29.9680228  30.9633470
  30.6957348  28.8576271  31.4590108  30.2744203  31.0599318  31.6848377
  30.0802806  31.9377282  31.2245305  30.3361359  31.0420675  33.1419207
  31.3569898  30.8452625  33.4694556  29.9158076  32.3981572  33.7117012
  29.4941103  32.2435171  34.7048563  30.7983696  33.0333669  33.7871530
  28.9526042  33.0248600  32.8821661  29.4267258  33.4839145  32.2125007
  29.4433932  29.9396934  33.7005395  29.7473883  29.3575697  34.7414627
  28.3469822  29.6610672  33.0028719  28.1536067  30.1612907  32.1470204
  27.3761609  28.6743246  33.4613202  27.7505719  28.1701167  34.3521944
  26.0553323  29.3542667  33.8287650  25.3660759  29.1934141  32.9998191
  25.6738300  28.8556617  34.7198032  26.1831902  30.8360188  34.0968586
  25.6438411  31.7700565  33.2212080  25.1291290  31.4191525  32.3391163
  25.7568230  33.1257282  33.4609565  25.3308231  33.8344977  32.7668440
  26.4154532  33.5650677  34.5888789  26.5312367  34.9145962  34.8321504
  26.0589017  35.3943437  34.1340316  26.9611920  32.6581669  35.4772477
  27.4779461  32.9994606  36.3616786  26.8415012  31.3036319  35.2266504
  27.2650227  30.5873588  35.9156100  27.1410471  27.6179097  32.3880760
  26.9110771  26.4493697  32.7007916  27.2009608  28.0370445  31.1280751
  27.4656544  28.9904888  30.9256384  26.8484269  27.1659370  30.0132052
  27.4617664  26.2656964  30.0345713  25.3840010  26.7351703  30.1121287
  24.8168173  27.5335800  30.5906095  24.9998653  26.5702399  29.1054819
  25.2526455  25.5444356  30.8683175  24.4497144  25.1359203  30.5992118
  27.0984091  27.8715857  28.6841191  26.2941731  28.6986278  28.2554761
  28.2136483  27.5380036  28.0441110  29.2741832  26.7504295  28.6091144
  28.9183950  25.7201617  28.6170741  29.4005644  27.0985546  29.6342660
  30.5101750  26.9229384  27.7938930  30.9238804  25.9511492  27.5244999
  31.2540256  27.4919625  28.3515661  30.0581576  27.6757152  26.5880733
  29.9640084  26.9741168  25.7592218  30.7732098  28.4549798  26.3243562
  28.6957979  28.3004098  26.8981693  28.8580552  29.3398732  27.1834506
  27.6684461  28.2782046  25.7709762  27.0896879  27.2336486  25.4739445
  27.4509850  29.4342339  25.1527530  27.9115152  30.2733836  25.4749936
  26.5309350  29.5396837  24.0271468  25.5065836  29.3907594  24.3671934
  26.6068701  30.9277255  23.3638800  26.1778349  31.6751340  24.0341809
  28.0533276  31.3066196  23.0846224  28.0875107  32.2915486  22.6150998
  28.4987580  30.5689162  22.4142326  28.6106230  31.3301467  24.0222206
  25.8741742  30.9134336  22.1325414  24.9817779  30.7109869  22.3486919
  26.8385831  28.4718270  22.9837305  27.9995443  28.1169982  22.7761285
  25.7948983  27.9669135  22.3346431  24.8572978  28.2145492  22.6169219
  25.9593314  27.0178054  21.2397753  26.8253244  26.3831083  21.4236277
  24.7313023  26.1115707  21.1283117  24.7603021  25.6012893  20.1655702
  24.7672833  25.3747214  21.9307198  23.5327246  26.8614756  21.2293077
  23.3143882  26.9050391  22.1422488  26.1878142  27.7545436  19.9246611
  25.6542804  28.8449982  19.7173576  26.9812119  27.1518571  19.0443828
  27.4560335  27.7225757  17.8141252  28.3221095  28.3518872  18.0190149
  26.6659625  28.3266933  17.3681109  27.7981435  26.5279661  16.9829636
  28.5551861  26.7535386  16.2318960  26.9203904  26.1020996  16.4968683
  28.3271503  25.6057558  18.0299536  29.4038205  25.7721412  17.9953678
  28.1156006  24.5557958  17.8276410  27.7854306  25.9912252  19.4076662
  27.1629911  25.2459475  19.9025401  28.8946175  26.3916987  20.3754820
  29.4227982  27.5008311  20.2953973  29.2379958  25.4833932  21.2821056
  28.7787815  24.5839163  21.2948693  30.2404369  25.7624792  22.3039529
  30.3724548  26.8389485  22.4132650  29.7929603  25.2077007  23.6583400
  28.8480276  25.6685755  23.9460828  29.6623188  24.1281064  23.5841167
  30.7857576  25.5006637  24.6449642  30.5050771  25.1526761  25.4945070
  31.5854199  25.1624635  21.9107726  31.6578596  24.3242875  21.0112513
  32.6427688  25.5961334  22.5891116  32.5168113  26.2136145  23.3783841
  34.0024559  25.2413687  22.1988925  33.9917518  24.3390807  21.5877837
  34.6298330  26.3617082  21.3660286  34.8865090  27.1684462  22.0526074
  35.5402376  25.9618654  20.9194982  33.7272830  26.8952164  20.2772157
  32.6793830  27.7562169  20.5761486  32.5184908  28.0420749  21.6050490
  31.8509869  28.2477751  19.5845644  31.0420942  28.9160342  19.8384609
  32.0651288  27.8778349  18.2744512  31.2419454  28.3636921  17.2843923
  30.6604127  29.0369072  17.6701254  33.0993630  27.0216468  17.9490781
  33.2679277  26.7308888  16.9228468  33.9215188  26.5376140  18.9488126
  34.7331677  25.8679757  18.7039438  34.8570373  24.9627963  23.4309104
  35.4967560  23.9159079  23.5227290  34.8581090  25.9046491  24.3690219
  34.3569878  26.7684293  24.2178242  35.6076953  25.7484056  25.6100237
  35.8771028  24.7024287  25.7526735  36.9022824  26.5622498  25.5591141
  36.9300225  27.2275002  26.4221156  37.7476803  25.8756081  25.6029952
  36.9779160  27.3282738  24.3703505  36.8222863  28.2234729  24.6114541
  34.7614795  26.1821826  26.8026269  34.4604865  27.3648176  26.9574512
  34.3862140  25.2177049  27.6363892  33.6012765  25.3743524  28.8300867
  32.8230967  26.1159186  28.6494876  34.2474705  25.7160773  29.6386387
  33.0472702  24.0121226  29.0817631  32.1554350  23.8232818  28.4842113
  32.8163299  23.8604961  30.1361716  34.1831095  23.1434827  28.6550127
  33.7334848  22.1841012  28.3990366  34.9946511  22.9858189  29.3653943
  34.7193000  23.8202180  27.3916442  35.7765638  23.7273496  27.1414088
  33.9115817  23.2756115  26.2191618  32.8596243  23.8180934  25.8790545
  34.4096634  22.2044934  25.6095869  35.3504315  21.8997574  25.8149907
  33.6445888  21.4627350  24.6146169  33.5834847  22.0355858  23.6890888
  34.3039726  20.1102681  24.2871014  33.7022711  19.5821162  23.5466044
  35.6966359  20.3231476  23.7134525  36.1485045  19.3555584  23.4874882
  36.3132741  20.8508864  24.4413509  35.6270273  20.9136619  22.7990901
  34.3988061  19.3204880  25.4791216  34.8100627  18.4779222  25.2728426
  32.2222933  21.2182938  25.1079739  31.3009916  21.0629960  24.3075648
  32.0564613  21.1853243  26.4267425  32.8558493  21.2722710  27.0379041
  30.7449620  20.9791281  27.0292487  30.3008110  20.0583998  26.6497815
  30.8671985  20.8470183  28.5480990  31.8592160  21.1838983  28.8489517
  30.1121567  21.4793019  29.0152491  30.6793678  19.5039297  28.9606298
  31.1055094  19.4120430  29.7924766  29.8086044  22.1307335  26.6766817
  30.2352105  23.2832972  26.6097627  28.5395446  21.8079939  26.4546561
  27.9390386  20.5049079  26.3644704  27.7091259  20.1356264  27.3639060
  28.6259700  19.8163688  25.8723950  26.7148218  20.7627368  25.5537247
  25.9909797  19.9565458  25.6729214  26.9628525  20.8745247  24.4982222
  26.2010908  22.0435971  26.1182629  25.6819637  21.8287551  27.0523126
  25.5514692  22.6303355  25.4687790  27.4889163  22.8176565  26.4052830
  27.7281511  23.5666991  25.6494782  27.3670900  23.5283878  27.7485821
  26.8999608  24.6649521  27.8138338  27.7905061  22.8510536  28.8109432
  28.1445462  21.9114450  28.7018989  27.7173609  23.4105215  30.1554827
  27.0449936  24.2688900  30.1662328  27.1684390  22.3750852  31.1378699
  26.6295719  22.8962856  31.9291168  26.4824626  21.7172495  30.6042140
  28.2140722  21.6057111  31.7064371  28.8070868  21.3934882  31.0081334
  29.0925152  23.8881587  30.6109236  30.1103628  23.4948067  30.0403664
  29.1104576  24.7336852  31.6361708  28.2441170  25.0236456  32.0668436
  29.9904325  25.0862765  31.9846293  23.7822004  29.2048591  58.2869766
  23.1083703  29.5080288  58.8954723  24.1687826  30.0077671  57.9375223
  27.6878890  26.4898847  56.5597212  27.6092521  26.1558710  57.4532970
  28.5088556  26.9820615  56.5588685  25.2582841  23.8066842  56.1807190
  25.9618692  24.0116845  56.7964846  24.5345490  24.3743604  56.4456274
  28.5021774  30.5434146  55.9438510  27.6251241  30.4222947  55.5800757
  28.9779527  29.7520224  55.6917399  31.2477083  31.4798533  55.7455620
  30.3408539  31.1831646  55.8218334  31.5253064  31.1828351  54.8789906
  30.0175868  28.3385468  55.8867599  30.8795032  28.6640367  56.1463417
  30.2026212  27.5516964  55.3740665  23.7822005   6.2110714  45.0115072
  23.1083704   6.5142410  45.6200030  24.1687827   7.0139794  44.6620529
  27.6878891   3.4960969  43.2842519  27.6092522   3.1620833  44.1778277
  28.5088558   3.9882737  43.2833991  25.2582843   0.8128965  42.9052497
  25.9618693   1.0178967  43.5210153  24.5345491   1.3805727  43.1701581
  28.4630337  13.5744050  50.9764550  27.8995202  13.4833987  50.2080837
  28.3482732  12.7543954  51.4567042  34.0429896  17.2415017  46.2879014
  33.3917876  17.8269098  45.9013028  34.8374259  17.7721212  46.3474052
  27.9685523  14.3304154  46.6866149  28.7416399  13.7833142  46.5479025
  28.3210922  15.1948404  46.8980610  30.3051801  10.4896821  44.3184599
  30.5577322   9.9678342  43.5568062  29.3676360  10.3262966  44.4211282
  35.3495084   9.4932599  52.1259342  36.1358173   9.0752022  51.7749759
  35.6133788  10.3978691  52.2940990  35.5205161  14.9305449  46.8247999
  34.8850994  15.0040076  47.5368903  35.1902567  15.5199048  46.1467078
  30.0248090  12.3924927  46.5208974  29.9084348  11.7169830  47.1890058
  30.1350350  11.9057300  45.7041127  32.3679631  11.8535074  50.2255663
  32.0037838  11.3265695  50.9368584  33.2246746  11.4633543  50.0522148
  32.0085118   6.8824973  45.2217011  32.1759520   7.7505210  45.5887483
  31.8182287   7.0452255  44.2978301  31.9874338   9.3382631  46.2063678
  31.8673964   9.7839682  47.0449159  31.2926927   9.6867949  45.6477216
  29.7481231  22.1086273  49.8553810  29.6705260  23.0594098  49.9342290
  29.1442874  21.7632145  50.5128736  37.6859405   9.8104104  47.0344012
  38.5977261  10.0431491  46.8591710  37.1769052  10.3941148  46.4719091
  36.2928987  14.7929922  54.4257594  35.6637849  14.9575637  53.7233662
  35.9054649  15.2071532  55.1968558  40.1718219  15.7284360  51.7801958
  39.4869257  16.1083262  51.2298991  40.2562068  16.3379687  52.5133905
  31.8456949  14.5304331  51.6907679  32.3095294  14.8092034  50.9012301
  31.5813747  13.6287775  51.5080770  30.7825835  10.6527483  48.4997244
  31.4849878  11.1048527  48.9671170  30.4506463  10.0111302  49.1277137
  32.0219599  17.4668426  48.5759349  31.8865274  18.3119961  49.0044197
  32.5629412  17.6687703  47.8125283  25.4748997  14.9843864  49.1487274
  25.9873517  15.7787114  49.2992839  26.1271710  14.2870154  49.0820876
  27.2843882  18.1009620  51.2310028  27.4610510  19.0227585  51.0431011
  28.0800715  17.7868039  51.6604407  23.4397914  13.3132518  49.9246845
  24.2773136  13.7229526  49.7080553  23.6176181  12.3731960  49.8947039
  35.3362346  10.9807599  45.6130678  34.8208969  11.7512203  45.8519065
  35.0639654  10.3072735  46.2363739  40.3096620  13.7339953  47.5483851
  39.5326063  13.3951113  47.1039013  40.9888101  13.7392576  46.8738816
  35.1248649   8.8534691  47.4390459  34.8198784   9.1680840  48.2900602
  36.0779091   8.9316111  47.4817792  33.5695081  15.0124914  49.0883413
  33.0416442  14.2777674  48.7756650  33.0682583  15.7899590  48.8423381
  37.3593386  11.5618307  52.2554401  37.8725267  12.1948299  52.7576111
  38.0094609  10.9619503  51.8897761  28.6283395   7.7049041  45.4685910
  27.7920708   8.0423728  45.7895184  28.4888165   7.5698021  44.5313047
  31.7147681  12.8305124  42.0918386  30.8074743  12.5994378  42.2909535
  32.2118713  12.0342743  42.2792368  34.6215760  21.5402631  45.0115072
  33.9477459  21.8434328  45.6200030  35.0081582  22.3431712  44.6620529
  34.6209264  10.4359178  49.6315422  35.3681083  10.9480576  49.3222544
  34.8900854  10.1143231  50.4919815  32.8935914  12.9317719  46.6142376
  31.9847134  12.6476752  46.7114846  32.9230998  13.3516798  45.7545683
  38.1255182  16.5424309  50.3833544  37.6717509  15.7015218  50.4398734
  37.4949148  17.1785707  50.7208324  37.0688101   7.4716295  51.6134211
  36.3310858   6.9593681  51.9444454  37.3214875   7.0316676  50.8017488
  36.5688121  18.3800805  51.3183362  36.8611095  18.9405862  50.5995727
  37.0786742  18.6729366  52.0736521  32.5912002  14.4726463  43.9530455
  32.1531432  13.7562322  43.4936092  33.3322443  14.7002578  43.3915546
  31.5321746  19.1581156  52.4076815  31.4897925  19.3842003  51.4785347
  32.4484445  18.9244531  52.5562616  40.7085117  12.7483660  50.0106773
  40.5703016  12.9385256  49.0827962  40.3521336  13.5103043  50.4674824
  29.6487547  16.0344185  52.2038778  30.4428145  15.5394506  52.0021353
  28.9379239  15.5062049  51.8406483  34.4682391  18.4162281  56.5551145
  34.5219414  18.9853217  57.3228861  33.5997173  18.5864166  56.1905182
  25.9570310  10.1787267  48.2798530  25.0267899  10.1171723  48.4968493
  26.0527782   9.6563220  47.4835172  32.8206975  21.7082304  47.2262151
  32.9958731  21.2370347  48.0407774  32.1339763  22.3348070  47.4543412
  33.7764038  15.9854810  53.2725453  33.4413871  15.9455580  54.1683102
  33.2767984  15.3199526  52.7995863  36.7123230  13.3310844  43.5462512
  36.0952400  12.6057673  43.4495565  36.2439718  14.0920205  43.2029587
  27.3868060  24.8571667  54.0002012  27.6264658  25.4890191  54.6781030
  26.5437257  24.5059707  54.2867371  28.5021776   7.5496269  42.6683817
  27.6251242   7.4285069  42.3046063  28.9779529   6.7582347  42.4162705
  31.8995922  20.6650789  56.4043516  31.8266094  21.4705761  56.9162820
  31.4573315  20.8642755  55.5791537  31.6885702  19.9022559  49.9146337
  30.9053224  20.4444239  50.0084562  32.3878447  20.4196539  50.3140578
  34.3594606  20.5637623  58.5601674  35.0722578  21.1985088  58.4877576
  33.8684634  20.6601489  57.7441676  36.0812133  14.4688876  50.1318966
  35.1468411  14.5890338  49.9623670  36.2588801  13.5661343  49.8678976
  37.5360915  16.6550016  47.6655152  37.8120759  16.5406611  48.5749026
  36.6665414  16.2567501  47.6267325  34.1714979  20.9036367  51.3087966
  34.3537374  20.0858023  51.7715718  34.9947965  21.1204059  50.8712856
  34.5057144  19.8304552  48.5703014  35.0344911  19.3197007  47.9573176
  34.7685364  19.5147083  49.4348547  27.8612892  20.8819669  51.3300790
  27.1923268  21.3665797  50.8464830  27.7225762  21.1288889  52.2444169
  32.0018161  22.9163412  57.9283448  32.5536469  23.0795034  58.6932534
  32.3424354  23.5067850  57.2563473  35.1386548  20.8645388  54.9147131
  35.0137688  20.0635128  54.4058076  35.7965639  21.3591581  54.4261101
  37.2021457  18.6654408  56.5426681  36.2551792  18.5459759  56.4705007
  37.5504230  17.7776906  56.6252942  34.2067890  18.4607124  52.7431033
  34.0592852  17.5323832  52.9238603  35.0321383  18.4827215  52.2588108
  37.8102012  19.2835683  53.8295906  38.7348559  19.0778544  53.6920357
  37.6417315  19.0352084  54.7385247  30.0598281   5.6099813  46.8004818
  30.7806644   5.9881066  46.2968535  29.4363586   6.3288690  46.9039796
  34.2029404   6.3144962  47.7363150  34.4193019   7.1969600  47.4351978
  33.7223471   5.9231175  47.0068792  37.5997328  19.8021350  49.1857997
  37.7734206  19.2367773  48.4331850  38.0926219  20.6022245  49.0037487
  38.5872501  19.1188115  46.2854895  39.2823405  19.7394808  46.5042210
  38.9295651  18.2683466  46.5607273  40.4863924  16.5687820  47.8142226
  41.0115248  16.9075093  47.0891546  40.3986276  15.6334836  47.6305361
  32.1704584  22.6359804  52.1737479  31.7309575  22.1436182  52.8670336
  32.9212701  22.0932771  51.9329555  24.6496923  18.8271345  52.1762107
  25.4754943  18.5275116  51.7960751  24.2990975  18.0578967  52.6251896
  29.6178457  18.1797813  54.2459781  28.9958466  17.5168518  53.9462009
  30.2883323  18.2058945  53.5633429  29.1791963  16.7301736  47.7218242
  29.3280084  17.4137201  47.0684914  29.9858407  16.7106826  48.2367697
  26.9344596  12.7566914  48.7279310  26.6890638  11.8529244  48.9259521
  27.1040511  12.7584064  47.7858788  26.2040244   8.4895271  46.2265472
  25.5109489   8.5639626  45.5705508  25.9591996   7.7255615  46.7486989
  32.6787369  19.2249867  45.1929989  32.1061336  19.8440054  44.7400461
  33.2520163  19.7749228  45.7269911  35.8984629  19.5087017  46.3238571
  36.8315302  19.4432578  46.5271447  35.8107842  20.3443284  45.8653104
  38.5272645  18.8252887  43.2842519  38.4486277  18.4912751  44.1778277
  39.3482312  19.3174655  43.2833991  33.0634167  10.5610679  42.5346041
  34.0093272  10.4316887  42.6034459  32.6848412   9.8225341  43.0115470
  31.2477085   8.4860656  42.4700927  30.3408540   8.1893768  42.5463640
  31.5253066   8.1890474  41.6035213  30.0175869   5.3447591  42.6112906
  30.8795033   5.6702489  42.8708723  30.2026213   4.5579087  42.0985972
  36.9533384   6.3776208  48.8104477  36.0659239   6.6625858  48.5924672
  37.3687373   6.2169971  47.9631754  24.9617634  20.9583959  53.8975922
  24.8272102  20.1984360  53.3313920  24.5449696  21.6824859  53.4304711
  36.0976597  16.1420882  42.9052497  36.8012447  16.3470885  43.5210153
  35.3739246  16.7097644  43.1701581  36.9274407  11.8930744  49.0254767
  36.8709609  12.3499295  48.1862400  37.4802750  11.1321428  48.8477610
  28.1186760  21.8553276  54.1094364  28.0019144  22.7998708  54.0073055
  27.2979206  21.5526838  54.4980164  38.0063295  16.5803412  44.9550957
  38.8408899  16.1484610  44.7728432  37.8447638  16.4085425  45.8827852
  37.6609187  13.0835525  46.3207296  37.6057991  12.9179796  45.3795741
  37.0355242  13.7911558  46.4769486  30.9705312   2.5843634  45.8992615
  30.9583982   3.5285474  46.0560886  31.8628734   2.4013779  45.6052076
  29.1441274  22.5081538  57.3250293  30.0468521  22.5405148  57.6416788
  28.9178644  21.5781989  57.3396629  30.8994876  21.2612524  53.9860372
  29.9490507  21.2614386  53.8724744  31.2027362  20.5145259  53.4696406
  39.3024092  28.9035967  50.9764550  38.7388957  28.8125904  50.2080837
  39.1876487  28.0835872  51.4567042  44.8823650  32.5706935  46.2879014
  44.2311630  33.1561015  45.9013028  45.6768013  33.1013130  46.3474052
  38.8079278  29.6596072  46.6866149  39.5810154  29.1125059  46.5479025
  39.1604676  30.5240321  46.8980610  41.1445555  25.8188738  44.3184599
  41.3971076  25.2970260  43.5568062  40.2070114  25.6554884  44.4211282
  46.1888838  24.8224517  52.1259342  46.9751927  24.4043940  51.7749759
  46.4527543  25.7270609  52.2940990  46.3598916  30.2597367  46.8247999
  45.7244749  30.3331993  47.5368903  46.0296322  30.8490966  46.1467078
  40.8641844  27.7216844  46.5208974  40.7478102  27.0461748  47.1890058
  40.9744104  27.2349218  45.7041127  43.2073385  27.1826991  50.2255663
  42.8431592  26.6557612  50.9368584  44.0640501  26.7925460  50.0522148
  42.8478872  22.2116891  45.2217011  43.0153274  23.0797127  45.5887483
  42.6576041  22.3744173  44.2978301  39.0566687  27.1247667  52.9219546
  38.1317183  26.9923881  53.1297238  39.3051100  27.9041886  53.4189489
  42.8268093  24.6674549  46.2063678  42.7067718  25.1131599  47.0449159
  42.1320681  25.0159866  45.6477216  36.4175498  26.7680940  53.7563335
  36.5467879  27.0215419  54.6702747  35.7372949  27.3608648  53.4367990
  48.5253159  25.1396022  47.0344012  49.4371015  25.3723408  46.8591710
  48.0162806  25.7233066  46.4719091  42.6850703  29.8596248  51.6907679
  43.1489049  30.1383951  50.9012301  42.4207501  28.9579693  51.5080770
  41.6219589  25.9819401  48.4997244  42.3243633  26.4340444  48.9671170
  41.2900218  25.3403219  49.1277137  35.3644923  24.2402953  53.8014378
  34.5743977  24.4960482  53.3254488  35.8556171  25.0551291  53.9066418
  37.3159669  24.6047533  50.7597854  36.5190832  24.7166227  51.2781350
  37.0885261  24.9434185  49.8938745  33.6482626  24.4933444  56.2329368
  33.8990665  25.3780454  56.4986944  34.1842175  24.3138045  55.4604460
  42.8613354  32.7960343  48.5759349  42.7259029  33.6411879  49.0044197
  43.4023166  32.9979621  47.8125283  36.3142751  30.3135781  49.1487274
  36.8267272  31.1079032  49.2992839  36.9665464  29.6162072  49.0820876
  38.1237636  33.4301538  51.2310028  38.3004264  34.3519502  51.0431011
  38.9194470  33.1159957  51.6604407  34.2791668  28.6424436  49.9246845
  35.1166890  29.0521444  49.7080553  34.4569936  27.7023878  49.8947039
  46.1756100  26.3099516  45.6130678  45.6602724  27.0804121  45.8519065
  45.9033409  25.6364652  46.2363739  43.7603211  21.1549217  50.6715916
  42.9044808  20.7656067  50.4921555  44.1730163  21.2341178  49.8115702
  51.1490374  29.0631871  47.5483851  50.3719817  28.7243030  47.1039013
  51.8281855  29.0684494  46.8738816  45.9642403  24.1826608  47.4390459
  45.6592539  24.4972757  48.2900602  46.9172846  24.2608028  47.4817792
  44.4088835  30.3416832  49.0883413  43.8810197  29.6069591  48.7756650
  43.9076338  31.1191508  48.8423381  39.1407563  21.0036498  51.4490024
  39.7151315  20.7811679  50.7163217  39.7278545  21.0725192  52.2018626
  39.4677150  23.0340959  45.4685910  38.6314462  23.3715645  45.7895184
  39.3281920  22.8989939  44.5313047  41.4430231  17.8777747  50.1765094
  40.7894643  17.5626764  49.5521709  41.4010705  17.2553487  50.9024917
  42.5541435  28.1597042  42.0918386  41.6468497  27.9286295  42.2909535
  43.0512467  27.3634661  42.2792368  45.4609514  36.8694549  45.0115072
  44.7871213  37.1726246  45.6200030  45.8475336  37.6723629  44.6620529
  44.6767971  24.3659680  54.5012742  43.7590532  24.5874627  54.3434430
  45.0928115  24.4405991  53.6424449  45.4603019  25.7651096  49.6315422
  46.2074838  26.2772493  49.3222544  45.7294608  25.4435149  50.4919815
  43.7329669  28.2609637  46.6142376  42.8240888  27.9768670  46.7114846
  43.7624753  28.6808715  45.7545683  47.9081856  22.8008212  51.6134211
  47.1704613  22.2885598  51.9444454  48.1608629  22.3608594  50.8017488
  34.3017839  25.9815151  50.5957578  34.1042239  25.3884512  49.8708645
  33.7464503  25.6767361  51.3133517  42.2814563  25.8738257  52.7152171
  42.3363173  24.9212094  52.6394648  41.4705765  26.0297696  53.1993470
  43.4305757  29.8018380  43.9530455  42.9925187  29.0854239  43.4936092
  44.1716198  30.0294495  43.3915546  40.2206923  24.4915317  50.4742550
  39.4074788  24.7909488  50.8807742  40.7165917  24.0971006  51.1917033
  39.7120998  22.0633673  56.0903785  40.3520377  21.9222432  55.3926749
  38.8798528  21.7768186  55.7142387  40.4881301  31.3636103  52.2038778
  41.2821900  30.8686423  52.0021353  39.7772994  30.8353966  51.8406483
  36.7964065  25.5079185  48.2798530  35.8661653  25.4463640  48.4968493
  36.8921537  24.9855138  47.4835172  36.7149614  22.0333998  50.8676772
  36.9756431  22.9479331  50.7585933  37.5366786  21.5658440  51.0173385
  47.5516984  28.6602762  43.5462512  46.9346155  27.9349590  43.4495565
  47.0833473  29.4212122  43.2029587  39.3415530  22.8788186  42.6683817
  38.4644996  22.7576987  42.3046063  39.8173283  22.0874265  42.4162705
  30.8617670  27.6665346  52.7625324  31.5488710  27.3527076  52.1746339
  30.7065799  28.5706711  52.4892575  35.6652392  22.5555543  57.1910347
  35.5810581  21.9481212  56.4560757  34.8435099  23.0464561  57.1919844
  46.9205887  29.7980793  50.1318966  45.9862166  29.9182256  49.9623670
  47.0982555  28.8953260  49.8678976  42.4211075  23.1826489  52.2852227
  42.0508863  22.6297530  52.9733133  42.9170168  22.5784623  51.7327227
  48.3754669  31.9841934  47.6655152  48.6514513  31.8698529  48.5749026
  47.5059168  31.5859419  47.6267325  30.4385646  25.7465939  55.0342791
  30.4769746  25.2129530  55.8279909  29.9325939  25.2201145  54.4153768
  37.8176409  20.5930480  58.5305333  37.8817735  21.4545311  58.1182731
  37.7543529  19.9804482  57.7977692  34.0694224  24.4730042  48.1096722
  34.3647665  23.5640720  48.0563776  33.1682260  24.4517781  47.7877725
  37.5988471  22.5486038  54.0924271  36.8775057  23.1622006  53.9531744
  38.3881727  23.0843803  54.0140917  35.7982066  22.1544139  48.2336047
  35.4694772  21.2741518  48.0511153  36.1521436  22.0991808  49.1212437
  38.9123889  22.4417109  48.6011525  39.2519961  22.9703030  47.8790133
  39.3596009  22.7797515  49.3770092  40.8992036  20.9391731  46.8004818
  41.6200398  21.3172983  46.2968535  40.2757340  21.6580607  46.9039796
  45.0423159  21.6436880  47.7363150  45.2586773  22.5261518  47.4351978
  44.5617226  21.2523093  47.0068792  39.7822380  24.6022593  54.3133895
  39.6366961  24.9162896  55.2058176  39.3047584  25.2207493  53.7604793
  41.6418763  21.5925141  54.3614784  41.6280332  20.6966234  54.0247082
  42.3591191  21.5995805  54.9953070  41.0455659  20.4739521  49.6302354
  41.1671570  19.5456167  49.8293242  40.7557701  20.4878207  48.7180670
  35.4890678  34.1563262  52.1762107  36.3148698  33.8567034  51.7960751
  35.1384730  33.3870885  52.6251896  33.6899283  32.0749589  53.1351041
  32.8531191  31.6471763  52.9535042  33.6622928  32.2682032  54.0721832
  40.0185718  32.0593654  47.7218242  40.1673838  32.7429118  47.0684914
  40.8252161  32.0398744  48.2367697  37.7738351  28.0858831  48.7279310
  37.5284393  27.1821161  48.9259521  37.9434265  28.0875982  47.7858788
  37.0433998  23.8187189  46.2265472  36.3503243  23.8931544  45.5705508
  36.7985750  23.0547533  46.7486989  43.5181123  34.5541784  45.1929989
  42.9455091  35.1731971  44.7400461  44.0913917  35.1041146  45.7269911
  46.7378383  34.8378934  46.3238571  47.6709056  34.7724496  46.5271447
  46.6501596  35.6735201  45.8653104  49.3666400  34.1544805  43.2842519
  49.2880031  33.8204668  44.1778277  50.1876067  34.6466573  43.2833991
  43.9027922  25.8902597  42.5346041  44.8487027  25.7608805  42.6034459
  43.5242167  25.1517259  43.0115470  42.0870839  23.8152573  42.4700927
  41.1802295  23.5185686  42.5463640  42.3646820  23.5182391  41.6035213
  33.0048779  25.1358937  52.9199973  32.6851564  24.2824245  52.6274347
  32.4582208  25.3507515  53.6757940  43.7032905  18.3589463  48.6245168
  42.8933633  18.0136548  49.0000414  44.3917322  18.0497007  49.2132780
  40.8569624  20.6739509  42.6112906  41.7188788  20.9994407  42.8708723
  41.0419968  19.8871005  42.0985972  32.8737039  28.7561848  54.8893095
  32.1800511  28.3415801  54.3763049  33.6210030  28.7982385  54.2926514
  34.7873782  28.6880102  52.7659110  34.7644470  28.7867789  51.8140993
  35.0974419  29.5345253  53.0876276  47.7927138  21.7068125  48.8104477
  46.9052993  21.9917776  48.5924672  48.2081127  21.5461889  47.9631754
  46.9370352  31.4712800  42.9052497  47.6406202  31.6762803  43.5210153
  46.2133000  32.0389562  43.1701581  47.7668162  27.2222661  49.0254767
  47.7103363  27.6791213  48.1862400  48.3196504  26.4613346  48.8477610
  48.8457049  31.9095329  44.9550957  49.6802653  31.4776528  44.7728432
  48.6841392  31.7377343  45.8827852  48.5002941  28.4127443  46.3207296
  48.4451745  28.2471714  45.3795741  47.8748997  29.1203476  46.4769486
  41.8099067  17.9135552  45.8992615  41.7977737  18.8577392  46.0560886
  42.7022489  17.7305697  45.6052076  50.1809285  38.2080104  42.6683817
  49.3038751  38.0868905  42.3046063  50.6567038  37.4166182  42.4162705
  52.9264594  39.1444491  42.4700927  52.0196049  38.8477604  42.5463640
  53.2040575  38.8474309  41.6035213  51.6963378  36.0031426  42.6112906
  52.5582542  36.3286325  42.8708723  51.8813722  35.2162922  42.0985972
  27.3868061   1.8633789  40.7247318  27.6264660   2.4952313  41.4026337
  26.5437258   1.5121829  41.0112677  39.3024093   5.9098090  37.7009856
  38.7388958   5.8188027  36.9326144  39.1876488   5.0897994  38.1812349
  36.8488525   7.4049281  40.5394077  37.6409817   7.0640106  40.1240376
  37.0885175   7.5144257  41.4596230  44.8823652   9.5769058  33.0124321
  44.2311631  10.1623138  32.6258335  45.6768014  10.1075252  33.0719359
  38.8079279   6.6658195  33.4111455  39.5810155   6.1187182  33.2724331
  39.1604678   7.5302444  33.6225917  40.6464321   7.9934577  46.6178355
  40.3554187   8.8980208  46.5025021  41.2821306   8.0351105  47.3322424
  41.5720528   5.3711426  43.2079714  42.1684100   5.1467448  42.4936677
  41.6295500   4.6296171  43.8105162  46.3598917   7.2659490  33.5493305
  45.7244750   7.3394116  34.2614210  46.0296323   7.8553088  32.8712385
  40.8641845   4.7278967  33.2454280  40.7478103   4.0523870  33.9135365
  40.9744105   4.2411341  32.4286433  45.6054206   7.6795993  43.6128148
  45.3054930   8.5821031  43.5043956  45.2605266   7.4128176  44.4649301
  39.0566688   4.1309789  39.6464853  38.1317184   3.9986003  39.8542545
  39.3051101   4.9104009  40.1434795  36.4175499   3.7743063  40.4808642
  36.5467880   4.0277542  41.3948054  35.7372950   4.3670771  40.1613297
  40.5874986  14.4440313  36.5799116  40.5099016  15.3948138  36.6587597
  39.9836630  14.0986185  37.2374042  47.1322743   7.1283963  41.1502900
  46.5031605   7.2929677  40.4478968  46.7448405   7.5425572  41.9213864
  51.0111975   8.0638401  38.5047264  50.3263013   8.4437302  37.9544297
  51.0955824   8.6733727  39.2379212  42.6850705   6.8658371  38.4152986
  43.1489050   7.1446074  37.6257608  42.4207503   5.9641815  38.2326076
  39.5774786   6.4129852  41.3532749  40.1476143   6.8417121  40.7150233
  40.1682897   6.1312437  42.0516934  43.1465338   8.1354358  45.4325676
  43.2109770   8.5974766  46.2683847  42.4376261   7.5051723  45.5607985
  33.6482628   1.4995566  42.9574675  33.8990666   2.3842576  43.2232251
  34.1842176   1.3200168  42.1849767  42.8613355   9.8022466  35.3004656
  42.7259030  10.6474002  35.7289504  43.4023168  10.0041743  34.5370590
  36.3142753   7.3197904  35.8732581  36.8267273   8.1141154  36.0238146
  36.9665465   6.6224194  35.8066182  38.1237637  10.4363660  37.9555334
  38.3004266  11.3581625  37.7676318  38.9194471  10.1222079  38.3849714
  39.2468953  11.9541834  43.9565676  39.7976378  11.8258897  43.1842670
  38.4080429  12.2536723  43.6060569  34.2791669   5.6486558  36.6492151
  35.1166891   6.0583567  36.4325859  34.4569937   4.7086000  36.6192345
  44.4088836   7.3478954  35.8128720  43.8810198   6.6131714  35.5001957
  43.9076339   8.1253631  35.5668688  42.5541437   5.1659164  28.8163693
  41.6468498   4.9348418  29.0154842  43.0512469   4.3696784  29.0037674
  45.4609516  13.8756672  31.7360379  44.7871214  14.1788368  32.3445337
  45.8475338  14.6785752  31.3865836  43.7329670   5.2671759  33.3387683
  42.8240889   4.9830792  33.4360152  43.7624754   5.6870838  32.4790990
  48.9648938   8.8778349  37.1078850  48.5111265   8.0369259  37.1644041
  48.3342904   9.5139747  37.4453630  47.4081877  10.7154846  38.0428668
  47.7004851  11.2759903  37.3241034  47.9180497  11.0083407  38.7981828
  34.3017840   2.9877273  37.3202885  34.1042240   2.3946634  36.5953952
  33.7464504   2.6829484  38.0378824  43.4305758   6.8080503  30.6775761
  42.9925188   6.0916362  30.2181399  44.1716199   7.0356618  30.1160853
  42.3715502  11.4935197  39.1322122  42.3291681  11.7196043  38.2030654
  43.2878201  11.2598571  39.2807923  40.4881303   8.3698226  38.9284084
  41.2821901   7.8748546  38.7266659  39.7772995   7.8416089  38.5651790
  45.3076147  10.7516321  43.2796452  45.3613169  11.3207257  44.0474168
  44.4390929  10.9218206  42.9150489  43.0652579   8.9427248  42.6081921
  42.9263664   8.5746032  43.4807860  42.2767175   9.4574887  42.4365879
  43.6600731  14.0436344  33.9507458  43.8352486  13.5724387  34.7653081
  42.9733519  14.6702110  34.1788719  44.6157794   8.3208850  39.9970759
  44.2807626   8.2809620  40.8928409  44.1161740   7.6553566  39.5241169
  38.5902038   3.7276480  45.5223340  38.4521836   2.9956719  46.1234879
  39.5006961   3.6385380  45.2407528  38.2261816  17.1925707  40.7247318
  38.4658414  17.8244231  41.4026337  37.3831012  16.8413747  41.0112677
  30.8617672   4.6727469  39.4870630  31.5488711   4.3589199  38.8991646
  30.7065800   5.5768833  39.2137882  42.7389678  13.0004829  43.1288822
  42.6659849  13.8059801  43.6408127  42.2967071  13.1996795  42.3036844
  42.5279457  12.2376599  36.6391644  41.7446979  12.7798280  36.7329868
  43.2272203  12.7550579  37.0385885  45.1988361  12.8991663  45.2846981
  45.9116334  13.5339128  45.2122882  44.7078390  12.9955529  44.4686983
  46.9205888   6.8042916  36.8564272  45.9862167   6.9244378  36.6868977
  47.0982557   5.9015383  36.5924282  40.2500275  10.6486107  46.1052552
  40.9509734  11.2822590  46.2581946  39.7795390  10.9900838  45.3448191
  48.3754671   8.9904057  34.3900459  48.6514515   8.8760651  35.2994333
  47.5059169   8.5921541  34.3512632  45.0108735  13.2390407  38.0333272
  45.1931129  12.4212063  38.4961025  45.8341721  13.4558100  37.5958162
  45.3450900  12.1658593  35.2948321  45.8738667  11.6551047  34.6818483
  45.6079120  11.8501123  36.1593854  35.8467993  10.1822462  43.0383654
  36.4321430   9.4366150  43.1711559  35.6492831  10.4926419  43.9220318
  38.7006648  13.2173709  38.0546097  38.0317023  13.7019837  37.5710137
  38.5619518  13.4642930  38.9689475  30.4385648   2.7528062  41.7588097
  30.4769747   2.2191653  42.5525216  29.9325941   2.2263268  41.1399075
  42.8411917  15.2517453  44.6528755  43.3930225  15.4149074  45.4177840
  43.1818110  15.8421891  43.9808780  45.9780304  13.1999428  41.6392437
  45.8531443  12.3989168  41.1303383  46.6359395  13.6945622  41.1506407
  48.0415212  11.0008448  43.2671987  47.0945548  10.8813800  43.1950314
  48.3897986  10.1130946  43.3498249  45.0461646  10.7961165  39.4676340
  44.8986608   9.8677872  39.6483910  45.8715139  10.8181255  38.9833415
  48.6495768  11.6189723  40.5541212  49.5742315  11.4132585  40.4165663
  48.4811071  11.3706124  41.4630554  48.4391084  12.1375391  35.9103304
  48.6127961  11.5721813  35.1577156  48.9319975  12.9376286  35.7282794
  34.2568044   4.1490060  43.9766863  33.7121512   4.9249868  44.1087137
  35.1347393   4.4960864  43.8185984  49.4266256  11.4542155  33.0100202
  50.1217161  12.0748848  33.2287517  49.7689406  10.6037506  33.2852580
  35.0434065   3.2759956  46.8697019  34.3015801   3.4242591  47.4561650
  34.7226810   3.5368222  46.0063769  51.3257679   8.9041861  34.5387533
  51.8509003   9.2429133  33.8136853  51.2380032   7.9688876  34.3550667
  42.9877728  12.8175934  46.6677409  43.2964855  12.5725081  47.5400109
  43.7853210  13.0222573  46.1796280  43.0098340  14.9713844  38.8982786
  42.5703330  14.4790223  39.5915643  43.7606457  14.4286812  38.6574861
  35.4890679  11.1625385  38.9007414  36.3148699  10.8629157  38.5206058
  35.1384731  10.3933007  39.3497203  40.4572212  10.5151853  40.9705088
  39.8352222   9.8522558  40.6707315  41.1277079  10.5412985  40.2878735
  33.6899284   9.0811711  39.8596348  32.8531192   8.6533886  39.6780349
  33.6622930   9.2744155  40.7967139  40.0185719   9.0655776  34.4463548
  40.1673840   9.7491241  33.7930221  40.8252163   9.0460866  34.9613004
  37.7738352   5.0920954  35.4524617  37.5284394   4.1883284  35.6504827
  37.9434267   5.0938104  34.5104095  43.5181125  11.5603907  31.9175296
  42.9455092  12.1794094  31.4645767  44.0913918  12.1103269  32.4515218
  46.7378385  11.8441057  33.0483878  47.6709058  11.7786619  33.2516753
  46.6501597  12.6797324  32.5898411  49.3666401  11.1606927  30.0087825
  49.2880033  10.8266791  30.9023583  50.1876068  11.6528695  30.0079298
  33.0048781   2.1421059  39.6445280  32.6851565   1.2886368  39.3519654
  32.4582209   2.3569638  40.4003247  36.7828688   4.8583500  43.3614786
  37.0014698   5.7900608  43.3802820  37.1954462   4.4991475  44.1469590
  32.8737041   5.7623971  41.6138401  32.1800512   5.3477924  41.1008356
  33.6210032   5.8044507  41.0171820  34.7873783   5.6942225  39.4904416
  34.7644471   5.7929912  38.5386299  35.0974420   6.5407375  39.8121582
  37.4461161   7.7518380  43.6051031  38.4004415   7.7202322  43.5380962
  37.2473685   7.2909003  44.4201257  38.0360543   6.3219496  46.1721828
  38.8553432   6.8163574  46.1956666  38.3097351   5.4051464  46.1439396
  35.8011390  13.2937999  40.6221228  35.6665858  12.5338400  40.0559227
  35.3843452  14.0178899  40.1550017  46.9370353   8.4774923  29.6297804
  47.6406203   8.6824925  30.2455459  46.2133002   9.0451685  29.8946887
  38.9580516  14.1907316  40.8339671  38.8412900  15.1352749  40.7318361
  38.1372962  13.8880878  41.2225470  48.8457050   8.9157452  31.6796264
  49.6802654   8.4838650  31.4973739  48.6841393   8.7439466  32.6073158
  39.9835030  14.8435578  44.0495600  40.8862277  14.8759188  44.3662095
  39.7572400  13.9136029  44.0641935  41.7388632  13.5966565  40.7105678
  40.7884263  13.5968426  40.5970050  42.0421118  12.8499299  40.1941713
  50.1417847  21.2390008  37.7009856  49.5782713  21.1479945  36.9326144
  50.0270242  20.4189912  38.1812349  47.6882279  22.7341199  40.5394077
  48.4803571  22.3932024  40.1240376  47.9278930  22.8436174  41.4596230
  49.6473033  21.9950112  33.4111455  50.4203909  21.4479100  33.2724331
  49.9998432  22.8594362  33.6225917  51.4858076  23.3226495  46.6178355
  51.1947942  24.2272126  46.5025021  52.1215060  23.3643022  47.3322424
  52.4114283  20.7003343  43.2079714  53.0077855  20.4759366  42.4936677
  52.4689254  19.9588089  43.8105162  51.9839311  18.1542779  31.0429905
  52.2364832  17.6324300  30.2813368  51.0463870  17.9908924  31.1456589
  51.7035600  20.0570884  33.2454280  51.5871858  19.3815788  33.9135365
  51.8137860  19.5703258  32.4286433  53.6872628  14.5470931  31.9462318
  53.8547030  15.4151168  32.3132789  53.4969797  14.7098213  31.0223607
  49.8960442  19.4601707  39.6464853  48.9710939  19.3277921  39.8542545
  50.1444856  20.2395926  40.1434795  53.6661849  17.0028589  32.9308985
  53.5461474  17.4485640  33.7694465  52.9714437  17.3513906  32.3722523
  47.2569253  19.1034981  40.4808642  47.3861635  19.3569460  41.3948054
  46.5766705  19.6962689  40.1613297  51.4268741  29.7732231  36.5799116
  51.3492770  30.7240056  36.6587597  50.8230384  29.4278103  37.2374042
  53.5244459  22.1950289  38.4152986  53.9882805  22.4737991  37.6257608
  53.2601257  21.2933733  38.2326076  50.4168540  21.7421770  41.3532749
  50.9869897  22.1709038  40.7150233  51.0076652  21.4604355  42.0516934
  52.4613345  18.3173441  35.2242551  53.1637388  18.7694485  35.6916477
  52.1293974  17.6757260  35.8522444  46.2038679  16.5756994  40.5259684
  45.4137733  16.8314522  40.0499795  46.6949926  17.3905331  40.6311725
  48.1553424  16.9401573  37.4843161  47.3584588  17.0520267  38.0026657
  47.9279017  17.2788225  36.6184051  53.9859092  23.4646276  45.4325676
  54.0503525  23.9266683  46.2683847  53.2770016  22.8343641  45.5607985
  44.4876382  16.8287484  42.9574675  44.7384420  17.7134494  43.2232251
  45.0235930  16.6492086  42.1849767  53.7007110  25.1314384  35.3004656
  53.5652784  25.9765919  35.7289504  54.2416922  25.3333661  34.5370590
  47.1536507  22.6489822  35.8732581  47.6661028  23.4433072  36.0238146
  47.8059220  21.9516112  35.8066182  48.9631392  25.7655578  37.9555334
  49.1398020  26.6873543  37.7676318  49.7588225  25.4513997  38.3849714
  50.0862707  27.2833752  43.9565676  50.6370132  27.1550815  43.1842670
  49.2474183  27.5828641  43.6060569  45.1185424  20.9778476  36.6492151
  45.9560646  21.3875484  36.4325859  45.2963692  20.0377918  36.6192345
  49.9801319  13.3390538  38.1735331  50.5545070  13.1165720  37.4408524
  50.5672301  13.4079233  38.9263932  50.3070906  15.3694999  32.1931216
  49.4708218  15.7069686  32.5140491  50.1675675  15.2343979  31.2558353
  52.2823986  10.2131787  36.9010401  51.6288399   9.8980804  36.2767015
  52.2404460   9.5907528  37.6270223  53.3935191  20.4951082  28.8163693
  52.4862253  20.2640336  29.0154842  53.8906223  19.6988701  29.0037674
  45.1411595  18.3169191  37.3202885  44.9435995  17.7238552  36.5953952
  44.5858259  18.0121401  38.0378824  53.1208319  18.2092298  39.4397478
  53.1756928  17.2566134  39.3639955  52.3099521  18.3651737  39.9238777
  51.0600679  16.8269357  37.1987857  50.2468544  17.1263528  37.6053049
  51.5559673  16.4325046  37.9162339  53.2109256  26.8227114  39.1322122
  53.1685435  27.0487961  38.2030654  54.1271955  26.5890489  39.2807923
  50.5514753  14.3987713  42.8149092  51.1914133  14.2576472  42.1172055
  49.7192284  14.1122226  42.4387694  51.3275057  23.6990143  38.9284084
  52.1215656  23.2040463  38.7266659  50.6166750  23.1708006  38.5651790
  47.6357821  17.8433225  35.0043837  46.7055409  17.7817681  35.2213799
  47.7315293  17.3209178  34.2080478  47.5543370  14.3688038  37.5922079
  47.8150187  15.2833371  37.4831239  48.3760542  13.9012480  37.7418692
  49.0268295  15.7825795  44.7620903  49.6991348  15.5743157  44.1133552
  48.1998082  15.5847881  44.3226136  53.9046333  24.2719165  42.6081921
  53.7657419  23.9037950  43.4807860  53.1160929  24.7866805  42.4365879
  49.4295792  19.0568398  45.5223340  49.2915590  18.3248637  46.1234879
  50.3400716  18.9677298  45.2407528  52.0578093  18.7688357  45.0107020
  52.7677712  18.1281550  44.9693638  52.0147401  19.0201252  45.9333201
  49.0655570  32.5217625  40.7247318  49.3052169  33.1536149  41.4026337
  48.2224767  32.1705665  41.0112677  50.1809286  15.2142227  29.3929123
  49.3038752  15.0931027  29.0291370  50.6567039  14.4228305  29.1408012
  41.7011426  20.0019386  39.4870630  42.3882466  19.6881116  38.8991646
  41.5459555  20.9060751  39.2137882  46.5046148  14.8909583  43.9155654
  46.4204337  14.2835252  43.1806064  45.6828855  15.3818601  43.9165150
  53.5783432  28.3296747  43.1288822  53.5053604  29.1351718  43.6408127
  53.1360825  28.5288713  42.3036844  53.3673212  27.5668517  36.6391644
  52.5840734  28.1090197  36.7329868  54.0665957  28.0842497  37.0385885
  53.2604831  15.5180529  39.0097534  52.8902618  14.9651570  39.6978439
  53.7563923  14.9138663  38.4572534  51.0894029  25.9778024  46.1052552
  51.7903489  26.6114507  46.2581946  50.6189144  26.3192756  45.3448191
  46.6861747  25.5114380  43.0383654  47.2715184  24.7658067  43.1711559
  46.4886586  25.8218336  43.9220318  49.5400403  28.5465627  38.0546097
  48.8710778  29.0311755  37.5710137  49.4013272  28.7934847  38.9689475
  41.2779402  18.0819980  41.7588097  41.3163502  17.5483570  42.5525216
  40.7719695  17.5555185  41.1399075  53.6805671  30.5809370  44.6528755
  54.2323979  30.7440992  45.4177840  54.0211865  31.1713808  43.9808780
  48.6570164  12.9284520  45.2550640  48.7211491  13.7899351  44.8428037
  48.5937285  12.3158522  44.5222998  44.9087980  16.8084082  34.8342029
  45.2041421  15.8994760  34.7809083  44.0076016  16.7871821  34.5123031
  48.4382227  14.8840078  40.8169577  47.7168813  15.4976046  40.6777051
  49.2275483  15.4197843  40.7386223  46.6375821  14.4898180  34.9581354
  46.3088528  13.6095558  34.7756460  46.9915192  14.4345848  35.8457743
  49.7517645  14.7771149  35.3256832  50.0913717  15.3057071  34.6035440
  50.1989765  15.1151555  36.1015398  51.7385792  13.2745771  33.5250124
  52.4594154  13.6527024  33.0213841  51.1151096  13.9934648  33.6285102
  50.6216136  16.9376633  41.0379201  50.4760717  17.2516936  41.9303483
  50.1441340  17.5561533  40.4850100  52.4812519  13.9279181  41.0860091
  52.4674088  13.0320274  40.7492389  53.1984947  13.9349845  41.7198377
  45.0961798  19.4781978  43.9766863  44.5515266  20.2541785  44.1087137
  45.9741148  19.8252782  43.8185984  51.8849415  12.8093561  36.3547661
  52.0065326  11.8810208  36.5538549  51.5951457  12.8232247  35.4425976
  45.8827820  18.6051874  46.8697019  45.1409556  18.7534509  47.4561650
  45.5620564  18.8660139  46.0063769  46.3284434  26.4917303  38.9007414
  47.1542454  26.1921074  38.5206058  45.9778486  25.7224925  39.3497203
  51.2965967  25.8443771  40.9705088  50.6745976  25.1814476  40.6707315
  51.9670834  25.8704903  40.2878735  44.5293039  24.4103629  39.8596348
  43.6924947  23.9825803  39.6780349  44.5016684  24.6036072  40.7967139
  50.8579474  24.3947694  34.4463548  51.0067594  25.0783158  33.7930221
  51.6645917  24.3752784  34.9613004  48.6132107  20.4212872  35.4524617
  48.3678149  19.5175202  35.6504827  48.7828021  20.4230022  34.5104095
  47.8827754  16.1541229  32.9510779  47.1896999  16.2285584  32.2950815
  47.6379506  15.3901573  33.4732295  52.9264595  16.1506614  29.1946233
  52.0196050  15.8539726  29.2708947  53.2040576  15.8536432  28.3280520
  43.8442535  17.4712977  39.6445280  43.5245320  16.6178285  39.3519654
  43.2975963  17.6861555  40.4003247  47.6222443  20.1875418  43.3614786
  47.8408453  21.1192526  43.3802820  48.0348217  19.8283392  44.1469590
  51.6963379  13.0093549  29.3358213  52.5582543  13.3348447  29.5954030
  51.8813724  12.2225045  28.8231278  43.7130795  21.0915889  41.6138401
  43.0194267  20.6769841  41.1008356  44.4603786  21.1336425  41.0171820
  45.6267538  21.0234142  39.4904416  45.6038226  21.1221830  38.5386299
  45.9368174  21.8699293  39.8121582  48.2854916  23.0810297  43.6051031
  49.2398169  23.0494240  43.5380962  48.0867439  22.6200921  44.4201257
  48.8754298  21.6511413  46.1721828  49.6947187  22.1455492  46.1956666
  49.1491105  20.7343382  46.1439396  46.6405144  28.6229917  40.6221228
  46.5059612  27.8630318  40.0559227  46.2237207  29.3470817  40.1550017
  49.7974270  29.5199234  40.8339671  49.6806654  30.4644666  40.7318361
  48.9766717  29.2172795  41.2225470  44.1289212  15.9849547  46.8714025
  44.7748076  15.4748501  47.3601251  43.9206363  16.7218229  47.4457451
  52.6492823  10.2489592  32.6237922  52.6371492  11.1931432  32.7806192
  53.5416244  10.0659737  32.3297383  50.8228784  30.1727496  44.0495600
  51.7256031  30.2051106  44.3662095  50.5966155  29.2427947  44.0641935
  52.5782386  28.9258482  40.7105678  51.6278017  28.9260344  40.5970050
  52.8814873  28.1791217  40.1941713  52.5405181  35.3311304  39.4870630
  53.2276220  35.0173034  38.8991646  52.3853309  36.2352669  39.2137882
  52.1173157  33.4111897  41.7588097  52.1557256  32.8775488  42.5525216
  51.6113449  32.8847103  41.1399075  49.0655572   9.5279747  27.4492625
  49.3052170  10.1598271  28.1271643  48.2224768   9.1767787  27.7357984
  52.5405182  12.3373427  26.2115937  53.2276222  12.0235157  25.6236952
  52.3853310  13.2414791  25.9383188  52.1173158  10.4174020  28.4833404
  52.1557257   9.8837611  29.2770522  51.6113451   9.8909226  27.8644381
   2.1034496  21.5402631  45.0115069   1.4296195  21.8434328  45.6200027
   2.4900318  22.3431712  44.6620526   6.0091382  18.8252887  43.2842516
   5.9305013  18.4912751  44.1778274   6.8301049  19.3174655  43.2833988
   3.5795334  16.1420882  42.9052494   4.2831184  16.3470885  43.5210150
   2.8557983  16.7097644  43.1701578   6.7842828  28.9035967  50.9764546
   6.2207693  28.8125904  50.2080834   6.6695223  28.0835872  51.4567039
  12.3642387  32.5706935  46.2879011  11.7130367  33.1561015  45.9013025
  13.1586750  33.1013130  46.3474049   6.2898014  29.6596072  46.6866146
   7.0628890  29.1125059  46.5479022   6.6423413  30.5240321  46.8980607
   8.6264292  25.8188738  44.3184596   8.8789813  25.2970260  43.5568059
   7.6888851  25.6554884  44.4211279  13.6707575  24.8224517  52.1259339
  14.4570664  24.4043940  51.7749756  13.9346279  25.7270609  52.2940987
  13.8417652  30.2597367  46.8247996  13.2063485  30.3331993  47.5368900
  13.5115058  30.8490966  46.1467075  19.0716002  24.7599750  53.0292317
  19.8041174  24.1898967  53.2630147  18.3155358  24.3721350  53.4698823
   8.3460581  27.7216844  46.5208971   8.2296839  27.0461748  47.1890055
   8.4562841  27.2349218  45.7041124  10.6892122  27.1826991  50.2255660
  10.3250329  26.6557612  50.9368581  11.5459237  26.7925460  50.0522145
  10.3297609  22.2116891  45.2217008  10.4972011  23.0797127  45.5887479
  10.1394778  22.3744173  44.2978298  10.3086829  24.6674549  46.2063675
  10.1886455  25.1131599  47.0449155   9.6139418  25.0159866  45.6477213
  16.0071896  25.1396022  47.0344009  16.9189752  25.3723408  46.8591707
  15.4981543  25.7233066  46.4719088  14.6141478  30.1221840  54.4257591
  13.9850340  30.2867554  53.7233659  14.2267140  30.5363450  55.1968555
  18.4930710  31.0576278  51.7801954  17.8081748  31.4375179  51.2298988
  18.5774559  31.6671605  52.5133902  10.1669440  29.8596248  51.6907676
  10.6307785  30.1383951  50.9012298   9.9026238  28.9579693  51.5080766
   9.1038326  25.9819401  48.4997241   9.8062369  26.4340444  48.9671167
   8.7718954  25.3403219  49.1277134  16.8627469  31.5808192  56.5519655
  17.6844913  31.1788380  56.2702337  16.8589872  31.4776427  57.5035771
  24.9533462  27.9246941  52.9004627  24.1997171  27.3554339  52.7448631
  25.0881004  27.8909605  53.8475261  10.3432090  32.7960343  48.5759346
  10.2077765  33.6411879  49.0044194  10.8841903  32.9979621  47.8125280
   3.7961488  30.3135781  49.1487271   4.3086008  31.1079032  49.2992836
   4.4484201  29.6162072  49.0820873  13.6574837  26.3099516  45.6130675
  13.1421460  27.0804121  45.8519062  13.3852145  25.6364652  46.2363736
  18.6309111  29.0631871  47.5483848  17.8538554  28.7243030  47.1039010
  19.3100592  29.0684494  46.8738813  13.4461140  24.1826608  47.4390456
  13.1411275  24.4972757  48.2900599  14.3991582  24.2608028  47.4817789
  11.8907572  30.3416832  49.0883410  11.3628933  29.6069591  48.7756647
  11.3895074  31.1191508  48.8423378  16.8700418  28.5365852  54.2050456
  16.2124092  29.2265114  54.2930585  17.6740817  28.9262284  54.5484443
  15.6805877  26.8910225  52.2554398  16.1937758  27.5240217  52.7576108
  16.3307100  26.2911420  51.8897758   6.9495886  23.0340959  45.4685907
   6.1133199  23.3715645  45.7895181   6.8100656  22.8989939  44.5313044
  10.0360172  28.1597042  42.0918383   9.1287234  27.9286295  42.2909532
  10.5331204  27.3634661  42.2792364  12.9428251  36.8694549  45.0115069
  12.2689950  37.1726246  45.6200027  13.3294073  37.6723629  44.6620526
  12.9421755  25.7651096  49.6315419  13.6893574  26.2772493  49.3222541
  13.2113345  25.4435149  50.4919812  11.2148405  28.2609637  46.6142373
  10.3059625  27.9768670  46.7114843  11.2443489  28.6808715  45.7545680
  16.4467673  31.8716226  50.3833541  15.9930000  31.0307136  50.4398731
  15.8161640  32.5077625  50.7208321  15.3900592  22.8008212  51.6134208
  14.6523349  22.2885598  51.9444451  15.6427366  22.3608594  50.8017485
  14.8900612  33.7092723  51.3183359  15.1823586  34.2697780  50.5995724
  15.3999233  34.0021284  52.0736518  10.9124493  29.8018380  43.9530452
  10.4743923  29.0854239  43.4936089  11.6534934  30.0294495  43.3915543
   9.8534237  34.4873074  52.4076812   9.8110416  34.7133920  51.4785344
  10.7696936  34.2536449  52.5562613  19.0297608  28.0775577  50.0106770
  18.8915507  28.2677173  49.0827959  18.6733827  28.8394960  50.4674821
  19.0566988  30.1452104  55.0218042  19.4903494  30.0527394  55.8701096
  19.7698568  30.1209605  54.3838058   7.9700038  31.3636103  52.2038775
   8.7640636  30.8686423  52.0021350   7.2591730  30.8353966  51.8406480
   4.2782801  25.5079185  48.2798527   3.3480390  25.4463640  48.4968489
   4.3740273  24.9855138  47.4835169  11.1419466  37.0374222  47.2262148
  11.3171222  36.5662265  48.0407771  10.4552254  37.6639988  47.4543409
  12.0976529  31.3146728  53.2725450  11.7626362  31.2747498  54.1683099
  11.5980475  30.6491444  52.7995860  15.0335721  28.6602762  43.5462509
  14.4164891  27.9349590  43.4495562  14.5652209  29.4212122  43.2029583
   6.8234267  22.8788186  42.6683813   5.9463733  22.7576987  42.3046060
   7.2992020  22.0874265  42.4162702  10.0098193  35.2314477  49.9146334
   9.2265715  35.7736157  50.0084558  10.7090938  35.7488456  50.3140575
  21.1724600  26.7449472  54.1998831  21.1614477  27.6274187  53.8292764
  20.3041980  26.3921023  54.0053368  14.4024624  29.7980793  50.1318963
  13.4680902  29.9182256  49.9623667  14.5801292  28.8953260  49.8678973
  17.7897175  25.6398113  50.6668997  18.2557627  26.4726104  50.5929300
  18.2404675  25.1743094  51.3714255  15.8573406  31.9841934  47.6655149
  16.1333250  31.8698529  48.5749023  14.9877905  31.5859419  47.6267322
  12.4927470  36.2328285  51.3087963  12.6749865  35.4149941  51.7715715
  13.3160456  36.4495977  50.8712853  12.8269636  35.1596470  48.5703011
  13.3557402  34.6488925  47.9573173  13.0897855  34.8439000  49.4348544
  15.5233948  33.9946326  56.5426678  14.5764283  33.8751677  56.4705004
  15.8716721  33.1068824  56.6252939  12.5280381  33.7899042  52.7431030
  12.3805343  32.8615749  52.9238600  13.3533875  33.8119133  52.2588105
  16.1314503  34.6127601  53.8295903  17.0561050  34.4070462  53.6920354
  15.9629806  34.3644002  54.7385244   8.3810772  20.9391731  46.8004815
   9.1019135  21.3172983  46.2968532   7.7576077  21.6580607  46.9039793
  12.5241895  21.6436880  47.7363147  12.7405510  22.5261518  47.4351975
  12.0435962  21.2523093  47.0068789  15.9209819  35.1313268  49.1857994
  16.0946697  34.5659691  48.4331846  16.4138710  35.9314163  49.0037484
  21.7749210  27.8949691  50.8048294  22.2180356  27.1457016  50.4067417
  20.8975721  27.8859827  50.4222026  16.9084992  34.4480033  46.2854892
  17.6035896  35.0686725  46.5042207  17.2508142  33.5975384  46.5607270
  18.8076415  31.8979738  47.8142223  19.3327739  32.2367011  47.0891543
  18.7198767  30.9626753  47.6305358   7.5004454  32.0593654  47.7218238
   7.6492575  32.7429118  47.0684911   8.3070898  32.0398744  48.2367694
  21.3182075  29.3654929  53.1970741  22.1528966  29.8044733  53.3608302
  21.4541204  28.8893583  52.3778987   5.2557087  28.0858831  48.7279307
   5.0103129  27.1821161  48.9259518   5.4253002  28.0875982  47.7858785
   4.5252735  23.8187189  46.2265469   3.8321980  23.8931544  45.5705505
   4.2804487  23.0547533  46.7486986  10.9999860  34.5541784  45.1929986
  10.4273827  35.1731971  44.7400458  11.5732654  35.1041146  45.7269908
  14.2197120  34.8378934  46.3238568  15.1527793  34.7724496  46.5271444
  14.1320333  35.6735201  45.8653101  16.8485136  34.1544805  43.2842516
  16.7698768  33.8204668  44.1778274  17.6694803  34.6466573  43.2833988
  11.3846658  25.8902597  42.5346038  12.3305763  25.7608805  42.6034456
  11.0060903  25.1517259  43.0115467  25.3639877  28.0822551  55.6324871
  26.0943266  27.8207839  56.1932574  24.7546823  27.3451273  55.6726939
  23.4455175  26.2230413  56.2299322  22.7188338  26.0886378  55.6215814
  23.0302461  26.5307242  57.0356040   9.5689576  23.8152573  42.4700924
   8.6621031  23.5185686  42.5463637   9.8465557  23.5182391  41.6035210
   8.3388360  20.6739509  42.6112903   9.2007524  20.9994407  42.8708720
   8.5238704  19.8871005  42.0985969  16.4920997  19.5468035  49.7548126
  15.9119666  20.2052839  49.3726178  16.2256929  18.7245380  49.3435543
  15.2745875  21.7068125  48.8104474  14.3871730  21.9917776  48.5924669
  15.6899864  21.5461889  47.9631751  18.6260411  21.7314646  52.5258813
  19.4020801  22.2211099  52.7983430  17.9008545  22.1572701  52.9830683
  21.0632970  22.4442266  53.5832754  21.6577460  22.2038002  52.8726062
  21.1359553  21.7249396  54.2106290  14.4189088  31.4712800  42.9052494
  15.1224938  31.6762803  43.5210150  13.6951737  32.0389562  43.1701578
  15.2486899  27.2222661  49.0254764  15.1922100  27.6791213  48.1862397
  15.8015241  26.4613346  48.8477607  19.0591704  23.0112393  49.8504884
  18.8028639  22.6109029  50.6813091  18.4344572  23.7256187  49.7255023
  23.3704042  25.7508467  52.3576175  22.8103600  25.8201656  53.1307737
  22.7647546  25.5749451  51.6375671  16.3275786  31.9095329  44.9550954
  17.1621390  31.4776528  44.7728429  16.1660129  31.7377343  45.8827849
  15.9821678  28.4127443  46.3207293  15.9270482  28.2471714  45.3795738
  15.3567733  29.1203476  46.4769483   9.2917803  17.9135552  45.8992612
   9.2796473  18.8577392  46.0560883  10.1841225  17.7305697  45.6052073
  17.6236583  44.2327885  50.9764546  17.0601448  44.1417822  50.2080834
  17.5088978  43.4127789  51.4567039  23.2036141  47.8998853  46.2879011
  22.5524121  48.4852933  45.9013025  23.9980504  48.4305048  46.3474049
  17.1291769  44.9887990  46.6866146  17.9022645  44.4416977  46.5479022
  17.4817167  45.8532239  46.8980607  19.4658046  41.1480656  44.3184596
  19.7183567  40.6262177  43.5568059  18.5282605  40.9846801  44.4211279
  24.5101329  40.1516434  52.1259339  25.2964418  39.7335857  51.7749756
  24.7740034  41.0562526  52.2940987  24.6811407  45.5889285  46.8247996
  24.0457240  45.6623911  47.5368900  24.3508813  46.1782883  46.1467075
  19.1854335  43.0508762  46.5208971  19.0690593  42.3753665  47.1890055
  19.2956595  42.5641136  45.7041124  21.5285876  42.5118909  50.2255660
  21.1644083  41.9849530  50.9368581  22.3852992  42.1217378  50.0522145
  21.1691363  37.5408809  45.2217008  21.3365765  38.4089045  45.5887479
  20.9788532  37.7036090  44.2978298  17.3779178  42.4539584  52.9219543
  16.4529674  42.3215799  53.1297235  17.6263591  43.2333804  53.4189486
  21.1480584  39.9966466  46.2063675  21.0280209  40.4423517  47.0449155
  20.4533172  40.3451784  45.6477213  26.8465650  40.4687939  47.0344009
  27.7583506  40.7015326  46.8591707  26.3375297  41.0524984  46.4719088
  24.1901625  36.6445975  55.2833870  23.3286104  36.9427229  55.5750608
  24.2164060  36.8616374  54.3514903  21.0063194  45.1888166  51.6907676
  21.4701540  45.4675869  50.9012298  20.7419992  44.2871610  51.5080766
  19.9432080  41.3111318  48.4997241  20.6456124  41.7632362  48.9671167
  19.6112709  40.6695137  49.1277134  15.6372160  39.9339450  50.7597851
  14.8403323  40.0458144  51.2781347  15.4097752  40.2726102  49.8938742
  21.1825845  48.1252261  48.5759346  21.0471520  48.9703797  49.0044194
  21.7235657  48.3271539  47.8125280  14.6355242  45.6427699  49.1487271
  15.1479763  46.4370949  49.2992836  15.2877955  44.9453989  49.0820873
  24.5318309  31.6482823  57.1058240  24.1882578  32.5384464  57.0297350
  24.8997271  31.4584480  56.2427825  24.4968591  41.6391434  45.6130675
  23.9815215  42.4096039  45.8519062  24.2245900  40.9656570  46.2363736
  22.0815702  36.4841135  50.6715913  21.2257299  36.0947985  50.4921552
  22.4942654  36.5633095  49.8115699  23.6114849  34.0187478  55.0707473
  23.1079644  33.9817613  54.2575278  23.9045456  34.9280221  55.1304130
  19.8557735  34.1026208  54.0773655  20.7210732  33.9069016  53.7179544
  19.9235244  33.8736559  55.0043011  29.4702865  44.3923789  47.5483848
  28.6932308  44.0534948  47.1039010  30.1494346  44.3976412  46.8738813
  24.2854894  39.5118526  47.4390456  23.9805030  39.8264675  48.2900599
  25.2385337  39.5899946  47.4817789  22.7301326  45.6708749  49.0883410
  22.2022688  44.9361509  48.7756647  22.2288829  46.4483426  48.8423378
  17.4620054  36.3328416  51.4490021  18.0363806  36.1103597  50.7163214
  18.0491036  36.4017110  52.2018623  17.7889641  38.3632877  45.4685907
  16.9526953  38.7007563  45.7895181  17.6494411  38.2281856  44.5313044
  19.7642722  33.2069664  50.1765091  19.1107134  32.8918682  49.5521706
  19.7223196  32.5845405  50.9024914  20.8753926  43.4888960  42.0918383
  19.9680988  43.2578213  42.2909532  21.3724958  42.6926579  42.2792364
  23.7822005  52.1986467  45.0115069  23.1083704  52.5018164  45.6200027
  24.1687827  53.0015547  44.6620526  22.9980462  39.6951598  54.5012738
  22.0803023  39.9166545  54.3434427  23.4140606  39.7697909  53.6424446
  23.7815510  41.0943014  49.6315419  24.5287329  41.6064411  49.3222541
  24.0507099  40.7727066  50.4919812  22.0542160  43.5901554  46.6142373
  21.1453379  43.3060587  46.7114843  22.0837244  44.0100633  45.7545680
  26.2294347  38.1300130  51.6134208  25.4917104  37.6177516  51.9444451
  26.4821120  37.6900512  50.8017485  26.3305974  30.9076382  52.2075977
  26.6364851  30.0473745  51.9201892  27.0558579  31.4994002  52.0074971
  20.6027054  41.2030175  52.7152168  20.6575664  40.2504011  52.6394645
  19.7918256  41.3589614  53.1993467  21.7518248  45.1310298  43.9530452
  21.3137678  44.4146157  43.4936089  22.4928689  45.3586413  43.3915543
  18.5419414  39.8207235  50.4742547  17.7287279  40.1201405  50.8807739
  19.0378408  39.4262924  51.1917029  18.0333489  37.3925590  56.0903782
  18.6732868  37.2514349  55.3926746  17.2011019  37.1060104  55.7142384
  18.8093792  46.6928021  52.2038775  19.6034391  46.1978341  52.0021350
  18.0985485  46.1645884  51.8406480  15.1176556  40.8371102  48.2798527
  14.1874144  40.7755558  48.4968489  15.2134028  40.3147055  47.4835169
  15.0362105  37.3625915  50.8676769  15.2968922  38.2771249  50.7585929
  15.8579277  36.8950358  51.0173382  25.8729475  43.9894680  43.5462509
  25.2558646  43.2641508  43.4495562  25.4045964  44.7504040  43.2029583
  17.6628021  38.2080104  42.6683813  16.7857488  38.0868905  42.3046060
  18.1385774  37.4166182  42.4162702  24.1588597  36.3701024  52.5580539
  24.6557297  35.6170986  52.2381610  23.3875579  36.4065341  51.9923749
  25.2418378  45.1272711  50.1318963  24.3074657  45.2474174  49.9623667
  25.4195046  44.2245178  49.8678973  20.7423566  38.5118407  52.2852224
  20.3721354  37.9589447  52.9733130  21.2382659  37.9076540  51.7327224
  28.6290929  40.9690030  50.6668997  29.0951382  41.8018022  50.5929300
  29.0798430  40.5035012  51.3714255  26.6967160  47.3133852  47.6655149
  26.9727004  47.1990446  48.5749023  25.8271659  46.9151337  47.6267322
  26.6007592  33.3370617  54.7059898  25.6870672  33.5674844  54.8742105
  27.0300694  33.4209061  55.5573931  12.3906715  39.8021959  48.1096719
  12.6860156  38.8932638  48.0563773  11.4894751  39.7809699  47.7877721
  15.9200962  37.8777956  54.0924268  15.1987548  38.4913924  53.9531741
  16.7094218  38.4135721  54.0140914  14.1194557  37.4836057  48.2336044
  13.7907263  36.6033436  48.0511150  14.4733927  37.4283726  49.1212434
  17.2336380  37.7709027  48.6011522  17.5732452  38.2994948  47.8790130
  17.6808500  38.1089433  49.3770088  20.5796292  33.2395390  56.5041913
  21.4022362  32.7655868  56.3820803  20.8234356  34.0185874  57.0040599
  19.2204527  36.2683648  46.8004815  19.9412889  36.6464901  46.2968532
  18.5969831  36.9872525  46.9039793  23.3635650  36.9728797  47.7363147
  23.5799264  37.8553435  47.4351975  22.8829717  36.5815011  47.0068789
  18.1034871  39.9314511  54.3133892  17.9579452  40.2454814  55.2058173
  17.6260075  40.5499411  53.7604790  19.9631254  36.9217059  54.3614781
  19.9492823  36.0258152  54.0247079  20.6803682  36.9287722  54.9953067
  19.3668150  35.8031439  49.6302351  19.4884061  34.8748085  49.8293239
  19.0770192  35.8170125  48.7180667  22.2359340  33.4886349  52.7669071
  22.2581037  33.5525682  51.8121051  22.6527399  32.6490858  52.9609577
  18.3398209  47.3885571  47.7218238  18.4886329  48.0721036  47.0684911
  19.1464652  47.3690662  48.2367694  16.0950842  43.4150749  48.7279307
  15.8496884  42.5113079  48.9259518  16.2646756  43.4167900  47.7858785
  15.3646489  39.1479107  46.2265469  14.6715734  39.2223462  45.5705505
  15.1198241  38.3839450  46.7486986  24.0360146  30.7074708  53.6304960
  24.3161900  30.0397897  54.2565386  24.8210753  30.9003804  53.1179623
  21.8393614  49.8833702  45.1929986  21.2667582  50.5023889  44.7400458
  22.4126408  50.4333064  45.7269908  25.0590874  50.1670852  46.3238568
  25.9921547  50.1016414  46.5271444  24.9714087  51.0027119  45.8653101
  27.6878891  49.4836722  43.2842516  27.6092522  49.1496586  44.1778274
  28.5088558  49.9758490  43.2833988  22.2240413  41.2194515  42.5346038
  23.1699518  41.0900723  42.6034456  21.8454658  40.4809177  43.0115467
  28.1962298  32.8850521  52.4972930  27.9987119  32.5765609  53.3816262
  28.8062003  33.6112160  52.6270860  20.4083330  39.1444491  42.4700924
  19.5014786  38.8477604  42.5463637  20.6859311  38.8474309  41.6035210
  22.0245396  33.6881381  48.6245165  21.2146124  33.3428466  49.0000411
  22.7129813  33.3788925  49.2132776  23.9535944  32.7659428  50.2469462
  24.5066983  33.1854881  50.9059485  24.1906031  31.8395176  50.2892418
  19.1782115  36.0031426  42.6112903  20.0401279  36.3286325  42.8708720
  19.3632459  35.2162922  42.0985969  27.3314751  34.8759953  49.7548126
  26.7513420  35.5344757  49.3726178  27.0650684  34.0537297  49.3435543
  25.7818318  34.2765010  51.9569446  26.2818096  34.3881545  51.1483765
  26.4253926  33.9726063  52.5970255  26.1139629  37.0360043  48.8104474
  25.2265484  37.3209694  48.5924669  26.5293618  36.8753807  47.9631751
  29.4654165  37.0606564  52.5258813  30.2414556  37.5503017  52.7983430
  28.7402300  37.4864618  52.9830683  25.2582843  46.8004718  42.9052494
  25.9618693  47.0054720  43.5210150  24.5345491  47.3681480  43.1701578
  26.0880653  42.5514579  49.0254764  26.0315854  43.0083131  48.1862397
  26.6408995  41.7905264  48.8477607  29.8985459  38.3404311  49.8504884
  29.6422393  37.9400947  50.6813091  29.2738327  39.0548105  49.7255023
  27.1669540  47.2387247  44.9550954  28.0015144  46.8068445  44.7728429
  27.0053883  47.0669261  45.8827849  26.8215432  43.7419360  46.3207293
  26.7664236  43.5763632  45.3795738  26.1961488  44.4495393  46.4769483
  20.1311558  33.2427469  45.8992612  20.1190228  34.1869309  46.0560883
  21.0234980  33.0597615  45.6052073  23.9463677  29.8370246  50.1538549
  23.1796073  29.2828733  50.2995231  24.3574382  29.9092115  51.0152700
  28.5021776  53.5372022  42.6683813  27.6251242  53.4160823  42.3046060
  28.9779529  52.7458100  42.4162702  31.2477085  54.4736409  42.4700924
  30.3408540  54.1769521  42.5463637  31.5253066  54.1766227  41.6035210
  30.0175869  51.3323344  42.6112903  30.8795033  51.6578242  42.8708720
  30.2026213  50.5454840  42.0985969   6.7842829   5.9098090  37.7009853
   6.2207695   5.8188027  36.9326141   6.6695225   5.0897994  38.1812346
  12.3642388   9.5769058  33.0124318  11.7130368  10.1623138  32.6258332
  13.1586751  10.1075252  33.0719356   6.2898015   6.6658195  33.4111452
   7.0628891   6.1187182  33.2724328   6.6423414   7.5302444  33.6225914
  13.6707576   1.8286639  38.8504646  14.4570665   1.4106062  38.4995063
  13.9346280   2.7332731  39.0186294  13.8417653   7.2659490  33.5493302
  13.2063486   7.3394116  34.2614207  13.5115060   7.8553088  32.8712382
  19.0716003   1.7661872  39.7537624  19.8041175   1.1961089  39.9875454
  18.3155359   1.3783473  40.1944130   8.3460582   4.7278967  33.2454277
   8.2296840   4.0523870  33.9135362   8.4562842   4.2411341  32.4286430
  10.6892123   4.1889114  36.9500966  10.3250330   3.6619735  37.6613888
  11.5459239   3.7987583  36.7767452  10.3086831   1.6736671  32.9308982
  10.1886456   2.1193722  33.7694462   9.6139419   2.0221989  32.3722520
   8.0693723  14.4440313  36.5799113   7.9917752  15.3948138  36.6587594
   7.4655366  14.0986185  37.2374039  16.0071897   2.1458144  33.7589316
  16.9189753   2.3785531  33.5837013  15.4981544   2.7295188  33.1964394
  14.6141479   7.1283963  41.1502897  13.9850342   7.2929677  40.4478965
  14.2267141   7.5425572  41.9213861  18.4930711   8.0638401  38.5047261
  17.8081749   8.4437302  37.9544294  18.5774560   8.6733727  39.2379209
  10.1669441   6.8658371  38.4152982  10.6307787   7.1446074  37.6257605
   9.9026239   5.9641815  38.2326073  16.8627471   8.5870315  43.2764962
  17.6844914   8.1850502  42.9947644  16.8589873   8.4838549  44.2281078
  24.9533464   4.9309064  39.6249933  24.1997172   4.3616462  39.4693938
  25.0881005   4.8971728  40.5720568  10.3432092   9.8022466  35.3004653
  10.2077766  10.6474002  35.7289501  10.8841904  10.0041743  34.5370587
   3.7961489   7.3197904  35.8732578   4.3086010   8.1141154  36.0238143
   4.4484202   6.6224194  35.8066179   5.6056374  10.4363660  37.9555331
   5.7823002  11.3581625  37.7676315   6.4013207  10.1222079  38.3849711
  13.6574838   3.3161639  32.3375981  13.1421461   4.0866243  32.5764369
  13.3852146   2.6426775  32.9609043  18.6309112   6.0693993  34.2729155
  17.8538555   5.7305153  33.8284317  19.3100593   6.0746617  33.5984120
  13.4461141   1.1888731  34.1635763  13.1411277   1.5034880  35.0145906
  14.3991583   1.2670151  34.2063096  11.8907573   7.3478954  35.8128717
  11.3628935   6.6131714  35.5001954  11.3895076   8.1253631  35.5668685
  16.8700419   5.5427975  40.9295763  16.2124093   6.2327236  41.0175891
  17.6740818   5.9324407  41.2729749  15.6805878   3.8972347  38.9799705
  16.1937760   4.5302339  39.4821414  16.3307102   3.2973543  38.6143065
  10.0360173   5.1659164  28.8163690   9.1287235   4.9348418  29.0154839
  10.5331205   4.3696784  29.0037671  12.9428252  13.8756672  31.7360376
  12.2689951  14.1788368  32.3445334  13.3294074  14.6785752  31.3865833
  12.9421756   2.7713219  36.3560725  13.6893575   3.2834616  36.0467847
  13.2113346   2.4497271  37.2165119  11.2148407   5.2671759  33.3387680
  10.3059626   4.9830792  33.4360149  11.2443490   5.6870838  32.4790987
  16.4467674   8.8778349  37.1078847  15.9930001   8.0369259  37.1644038
  15.8161641   9.5139747  37.4453627  15.3900594  -0.1929665  38.3379515
  14.6523350  -0.7052279  38.6689757  15.6427367  -0.6329284  37.5262792
  14.8900613  10.7154846  38.0428665  15.1823588  11.2759903  37.3241031
  15.3999234  11.0083407  38.7981824  10.9124494   6.8080503  30.6775758
  10.4743924   6.0916362  30.2181396  11.6534935   7.0356618  30.1160850
   9.8534238  11.4935197  39.1322119   9.8110417  11.7196043  38.2030651
  10.7696937  11.2598571  39.2807920  19.0297609   5.0837700  36.7352077
  18.8915508   5.2739296  35.8073266  18.6733828   5.8457083  37.1920128
  19.0566989   7.1514227  41.7463348  19.4903495   7.0589516  42.5946402
  19.7698570   7.1271728  41.1083364   7.9700039   8.3698226  38.9284081
   8.7640638   7.8748546  38.7266656   7.2591732   7.8416089  38.5651787
  12.7894884  10.7516321  43.2796449  12.8431906  11.3207257  44.0474165
  11.9209665  10.9218206  42.9150486  11.1419467  14.0436344  33.9507455
  11.3171223  13.5724387  34.7653078  10.4552255  14.6702110  34.1788716
  12.0976530   8.3208850  39.9970756  11.7626363   8.2809620  40.8928406
  11.5980476   7.6553566  39.5241166  15.0335722   5.6664885  30.2707816
  14.4164893   4.9411713  30.1740869  14.5652211   6.4274245  29.9274890
   5.7080553  17.1925707  40.7247315   5.9477151  17.8244231  41.4026334
   4.8649749  16.8413747  41.0112674  10.2208414  13.0004829  43.1288819
  10.1478586  13.8059801  43.6408124   9.7785807  13.1996795  42.3036840
  10.0098194  12.2376599  36.6391641   9.2265716  12.7798280  36.7329865
  10.7090939  12.7550579  37.0385882  21.1724602   3.7511594  40.9244137
  21.1614478   4.6336310  40.5538071  20.3041981   3.3983145  40.7298675
  12.6807098  12.8991663  45.2846978  13.3935070  13.5339128  45.2122879
  12.1897127  12.9955529  44.4686980  14.4024625   6.8042916  36.8564269
  13.4680904   6.9244378  36.6868974  14.5801293   5.9015383  36.5924279
  17.7897176   2.6460235  37.3914304  18.2557628   3.4788227  37.3174606
  18.2404677   2.1805217  38.0959562  15.8573407   8.9904057  34.3900456
  16.1333251   8.8760651  35.2994330  14.9877906   8.5921541  34.3512629
  12.4927471  13.2390407  38.0333269  12.6749866  12.4212063  38.4961022
  13.3160457  13.4558100  37.5958159  12.8269637  12.1658593  35.2948318
  13.3557403  11.6551047  34.6818480  13.0897856  11.8501123  36.1593851
   6.1825385  13.2173709  38.0546094   5.5135760  13.7019837  37.5710134
   6.0438254  13.4642930  38.9689472  10.3230653  15.2517453  44.6528752
  10.8748961  15.4149074  45.4177837  10.6636847  15.8421891  43.9808777
  13.4599041  13.1999428  41.6392434  13.3350180  12.3989168  41.1303380
  14.1178132  13.6945622  41.1506404  15.5233949  11.0008448  43.2671984
  14.5764284  10.8813800  43.1950311  15.8716722  10.1130946  43.3498246
  12.5280382  10.7961165  39.4676336  12.3805345   9.8677872  39.6483906
  13.3533876  10.8181255  38.9833412  16.1314504  11.6189723  40.5541209
  17.0561052  11.4132585  40.4165660  15.9629807  11.3706124  41.4630551
  15.9209820  12.1375391  35.9103301  16.0946698  11.5721813  35.1577153
  16.4138712  12.9376286  35.7282791  21.7749211   4.9011814  37.5293600
  22.2180358   4.1519139  37.1312724  20.8975722   4.8921950  37.1467332
  16.9084993  11.4542155  33.0100199  17.6035897  12.0748848  33.2287514
  17.2508143  10.6037506  33.2852577  18.8076416   8.9041861  34.5387530
  19.3327740   9.2429133  33.8136850  18.7198768   7.9688876  34.3550664
  10.4917077  14.9713844  38.8982783  10.0522067  14.4790223  39.5915640
  11.2425194  14.4286812  38.6574858   2.9709416  11.1625385  38.9007411
   3.7967436  10.8629157  38.5206054   2.6203468  10.3933007  39.3497200
   7.9390949  10.5151853  40.9705085   7.3170958   9.8522558  40.6707312
   8.6095816  10.5412985  40.2878732   7.5004456   9.0655776  34.4463545
   7.6492576   9.7491241  33.7930218   8.3070899   9.0460866  34.9613001
  21.3182076   6.3717052  39.9216048  22.1528968   6.8106856  40.0853608
  21.4541205   5.8955705  39.1024294  10.9999861  11.5603907  31.9175293
  10.4273828  12.1794094  31.4645764  11.5732655  12.1103269  32.4515214
  14.2197121  11.8441057  33.0483875  15.1527794  11.7786619  33.2516750
  14.1320334  12.6797324  32.5898407  16.8485138  11.1606927  30.0087822
  16.7698769  10.8266791  30.9023580  17.6694804  11.6528695  30.0079295
  11.3846660   2.8964720  29.2591345  12.3305764   2.7670928  29.3279763
  11.0060905   2.1579382  29.7360773  25.3639879   5.0884673  42.3570178
  26.0943267   4.8269962  42.9177881  24.7546824   4.3513395  42.3972246
  23.4455176   3.2292536  42.9544629  22.7188339   3.0948501  42.3461121
  23.0302463   3.5369365  43.7601347  15.2745876  -1.2869752  35.5349781
  14.3871731  -1.0020101  35.3169975  15.6899865  -1.4475989  34.6877058
  18.6260412  -1.2623231  39.2504120  19.4020802  -0.7726779  39.5228737
  17.9008546  -0.8365177  39.7075989  21.0632971  -0.5495612  40.3078061
  21.6577462  -0.7899876  39.5971369  21.1359554  -1.2688481  40.9351597
   3.2830126  13.2937999  40.6221225   3.1484594  12.5338400  40.0559223
   2.8662189  14.0178899  40.1550014  14.4189089   8.4774923  29.6297801
  15.1224940   8.6824925  30.2455456  13.6951738   9.0451685  29.8946884
  15.2486900   4.2284784  35.7500071  15.1922101   4.6853335  34.9107703
  15.8015242   3.4675469  35.5722914  19.0591706   0.0174516  36.5750190
  18.8028640  -0.3828848  37.4058398  18.4344574   0.7318310  36.4500330
  23.3704044   2.7570589  39.0821482  22.8103602   2.8263778  39.8553044
  22.7647547   2.5811574  38.3620978   6.4399252  14.1907316  40.8339668
   6.3231637  15.1352749  40.7318358   5.6191699  13.8880878  41.2225467
  16.3275787   8.9157452  31.6796261  17.1621391   8.4838650  31.4973736
  16.1660130   8.7439466  32.6073155  15.9821679   5.4189565  33.0452600
  15.9270483   5.2533837  32.1041044  15.3567734   6.1265598  33.2014790
   7.4653766  14.8435578  44.0495596   8.3681013  14.8759188  44.3662091
   7.2391137  13.9136029  44.0641932   9.2207368  13.5966565  40.7105675
   8.2703000  13.5968426  40.5970047   9.5239855  12.8499299  40.1941710
  24.9560062  19.4327103  41.7751437  25.5938472  19.3133850  41.0714778
  24.8380905  20.3807947  41.8339390  21.7649768  19.3854531  41.7112962
  21.4268280  19.2695596  40.8233497  22.6339536  18.9845696  41.6913968
  17.6236584  21.2390008  37.7009853  17.0601449  21.1479945  36.9326141
  17.5088979  20.4189912  38.1812346  22.2469551  20.5389383  47.6699168
  22.2358192  20.1442181  46.7979671  22.4090191  19.8055455  48.2632939
  15.1701016  22.7341199  40.5394074  15.9622308  22.3932024  40.1240373
  15.4097666  22.8436174  41.4596227  17.1291770  21.9950112  33.4111452
  17.9022646  21.4479100  33.2724328  17.4817169  22.8594362  33.6225914
  18.9676812  23.3226495  46.6178352  18.6766678  24.2272126  46.5025018
  19.6033797  23.3643022  47.3322421  19.8933019  20.7003343  43.2079711
  20.4896591  20.4759366  42.4936674  19.9507991  19.9588089  43.8105159
  19.4658048  18.1542779  31.0429902  19.7183568  17.6324300  30.2813365
  18.5282607  17.9908924  31.1456586  24.5101330  17.1578557  38.8504646
  25.2964420  16.7397980  38.4995063  24.7740035  18.0624649  39.0186294
  29.9109758  17.0953790  39.7537624  30.6434930  16.5253007  39.9875454
  29.1549113  16.7075391  40.1944130  19.1854336  20.0570884  33.2454277
  19.0690594  19.3815788  33.9135362  19.2956596  19.5703258  32.4286430
  21.5285877  19.5181032  36.9500966  21.1644085  18.9911653  37.6613888
  22.3852993  19.1279501  36.7767452  27.4335178  10.8075364  44.2132233
  27.1018503  11.6770775  43.9893448  26.8380791  10.4911648  44.8926263
  21.1691364  14.5470931  31.9462315  21.3365767  15.4151168  32.3132786
  20.9788533  14.7098213  31.0223604  23.9266697  23.0087910  43.6128145
  23.6267421  23.9112949  43.5043953  23.5817757  22.7420093  44.4649298
  17.3779179  19.4601707  39.6464850  16.4529675  19.3277921  39.8542542
  17.6263592  20.2395926  40.1434792  27.3263841  15.5270450  41.2925583
  26.4180719  15.4585859  40.9984344  27.2751437  16.0042395  42.1207408
  21.1480585  17.0028589  32.9308982  21.0280210  17.4485640  33.7694462
  20.4533174  17.3513906  32.3722520  14.7387990  19.1034981  40.4808639
  14.8680371  19.3569460  41.3948051  14.0585441  19.6962689  40.1613294
  21.4004707  16.9460096  49.2360480  20.6238041  17.5054016  49.2263345
  22.0395270  17.4316879  49.7575350  29.1925488  13.7286889  43.0703457
  28.5499868  14.0219422  42.4243251  28.6880416  13.6139809  43.8756653
  26.8465651  17.4750062  33.7589316  27.7583507  17.7077449  33.5837013
  26.3375298  18.0587106  33.1964394  19.6551079  19.7545549  48.7978447
  20.3965764  20.2930593  48.5213271  18.9488065  20.3811838  48.9549999
  25.1306419  21.8974690  47.3950608  25.5389775  21.4557100  46.6505241
  24.4083681  21.3227317  47.6484801  21.4837489  16.8347297  44.7684165
  22.3298684  17.2586710  44.9118814  21.4236127  16.1780921  45.4622729
  25.4535234  22.4575880  41.1502897  24.8244096  22.6221595  40.4478965
  25.0660896  22.8717490  41.9213861  29.3324466  23.3930318  38.5047261
  28.6475504  23.7729220  37.9544294  29.4168315  24.0025645  39.2379209
  24.6336934  14.4951665  46.4265339  24.3897866  15.2493725  45.8899615
  24.9096865  14.8737013  47.2612586  26.5875397  21.0390277  45.1042605
  26.7992292  21.6822037  44.4276986  26.5405145  20.2052594  44.6364535
  24.1901626  13.6508098  42.0079177  23.3286105  13.9489352  42.2995914
  24.2164061  13.8678497  41.0760209  21.0063196  22.1950289  38.4152982
  21.4701541  22.4737991  37.6257605  20.7419994  21.2933733  38.2326073
  17.8987277  21.7421770  41.3532746  18.4688634  22.1709038  40.7150230
  18.4895388  21.4604355  42.0516931  19.9432082  18.3173441  35.2242548
  20.6456125  18.7694485  35.6916474  19.6112710  17.6757260  35.8522441
  18.3912443  16.9085198  49.5993757  17.7611104  17.5901478  49.8329154
  18.2848531  16.7968279  48.6546895  13.6857416  16.5756994  40.5259681
  12.8956470  16.8314522  40.0499792  14.1768663  17.3905331  40.6311722
  27.7021225  23.9162233  43.2764962  28.5238669  23.5142420  42.9947644
  27.6983628  23.8130467  44.2281078  15.6372161  16.9401573  37.4843158
  14.8403324  17.0520267  38.0026654  15.4097753  17.2788225  36.6184048
  21.4677829  23.4646276  45.4325672  21.5322261  23.9266683  46.2683844
  20.7588752  22.8343641  45.5607982  11.9695119  16.8287484  42.9574672
  12.2203157  17.7134494  43.2232248  12.5054667  16.6492086  42.1849764
  35.7927218  20.2600981  39.6249933  35.0390927  19.6908379  39.4693938
  35.9274759  20.2263646  40.5720568  14.6355244  22.6489822  35.8732578
  15.1479764  23.4433072  36.0238143  15.2877956  21.9516112  35.8066179
  16.4450128  25.7655578  37.9555331  16.6216757  26.6873543  37.7676315
  17.2406962  25.4513997  38.3849711  15.7302485  17.8120210  47.8317494
  15.6156000  16.9105467  48.1324593  14.8747003  18.0583906  47.4802311
  22.8094323  25.7537950  49.4304995  22.3658177  24.9674329  49.1125899
  23.4711536  25.9417101  48.7648886  17.5681444  27.2833752  43.9565673
  18.1188869  27.1550815  43.1842667  16.7292920  27.5828641  43.6060566
  24.9075561  26.0340750  47.4586396  24.8894036  26.8549631  46.9666665
  25.8295481  25.9094825  47.6836537  21.3648615  23.5484879  48.3009905
  21.8976952  22.7873168  48.0709212  20.8362696  23.2558531  49.0434059
  24.5318310   8.6544945  43.8303546  24.1882579   9.5446587  43.7542657
  24.8997272   8.4646603  42.9673131  12.6004160  20.9778476  36.6492148
  13.4379382  21.3875484  36.4325856  12.7782428  20.0377918  36.6192342
  24.4968592  18.6453556  32.3375981  23.9815216  19.4158161  32.5764369
  24.2245901  17.9718693  32.9609043  22.0815704  13.4903257  37.3961220
  21.2257300  13.1010108  37.2166858  22.4942655  13.5695218  36.5361005
  23.6114850  11.0249601  41.7952780  23.1079646  10.9879736  40.9820585
  23.9045457  11.9342343  41.8549436  19.8557736  11.1088330  40.8018961
  20.7210733  10.9131139  40.4424851  19.9235245  10.8798682  41.7288318
  24.2854896  16.5180649  34.1635763  23.9805031  16.8326798  35.0145906
  25.2385338  16.5962068  34.2063096  27.7094174  20.8719892  40.9295763
  27.0517848  21.5619154  41.0175891  28.5134573  21.2616324  41.2729749
  17.4620055  13.3390538  38.1735328  18.0363807  13.1165720  37.4408521
  18.0491038  13.4079233  38.9263929  26.5199632  19.2264265  38.9799705
  27.0331514  19.8594257  39.4821414  27.1700856  18.6265461  38.6143065
  17.7889642  15.3694999  32.1931213  16.9526954  15.7069686  32.5140488
  17.6494412  15.2343979  31.2558350  19.7642723  10.2131787  36.9010397
  19.1107135   9.8980804  36.2767012  19.7223197   9.5907528  37.6270220
  20.8753928  20.4951082  28.8163690  19.9680989  20.2640336  29.0154839
  21.3724960  19.6988701  29.0037671  22.9980463  16.7013721  41.2258045
  22.0803025  16.9228668  41.0679733  23.4140607  16.7760031  40.3669752
  23.7815511  18.1005136  36.3560725  24.5287330  18.6126534  36.0467847
  24.0507100  17.7789189  37.2165119  22.0542161  20.5963677  33.3387680
  21.1453380  20.3122710  33.4360149  22.0837245  21.0162756  32.4790987
  27.2861429  24.2070267  37.1078847  26.8323756  23.3661176  37.1644038
  26.6555395  24.8431665  37.4453627  26.2294348  15.1362253  38.3379515
  25.4917105  14.6239639  38.6689757  26.4821122  14.6962634  37.5262792
  25.7294368  26.0446763  38.0428665  26.0217342  26.6051820  37.3241031
  26.2392988  26.3375324  38.7981824  26.3305975   7.9138505  38.9321284
  26.6364852   7.0535868  38.6447199  27.0558580   8.5056125  38.7320278
  12.6230332  18.3169191  37.3202882  12.4254731  17.7238552  36.5953948
  12.0676995  18.0121401  38.0378821  20.6027055  18.2092298  39.4397475
  20.6575665  17.2566134  39.3639952  19.7918257  18.3651737  39.9238773
  21.7518249  22.1372421  30.6775758  21.3137679  21.4208280  30.2181396
  22.4928690  22.3648536  30.1160850  18.5419415  16.8269357  37.1987854
  17.7287281  17.1263528  37.6053046  19.0378409  16.4325046  37.9162336
  24.1393627  17.2911182  46.0302748  24.4943014  17.5182655  46.8897214
  24.7865758  17.6229559  45.4080003  29.8691364  20.4129618  36.7352077
  29.7309262  20.6031214  35.8073266  29.5127583  21.1749001  37.1920128
  18.0333490  14.3987713  42.8149089  18.6732869  14.2576472  42.1172052
  17.2011020  14.1122226  42.4387691  29.8960743  22.4806145  41.7463348
  30.3297250  22.3881434  42.5946402  30.6092324  22.4563645  41.1083364
  18.8093794  23.6990143  38.9284081  19.6034392  23.2040463  38.7266656
  18.0985486  23.1708006  38.5651787  23.6288638  26.0808239  43.2796449
  23.6825660  26.6499175  44.0474165  22.7603420  26.2510124  42.9150486
  15.1176557  17.8433225  35.0043834  14.1874145  17.7817681  35.2213796
  15.2134029  17.3209178  34.2080475  15.0362106  14.3688038  37.5922076
  15.2968924  15.2833371  37.4831236  15.8579279  13.9012480  37.7418688
  16.5087032  15.7825795  44.7620900  17.1810085  15.5743157  44.1133549
  15.6816818  15.5847881  44.3226132  30.7576293  22.5229845  44.2796234
  30.9512183  23.4275656  44.5255509  30.6576911  22.0637264  45.1134819
  22.4112604  12.4087736  46.7786561  21.7640519  13.1077686  46.6851037
  23.1813619  12.8423880  47.1462809  25.8191402  22.6736588  49.8537114
  25.6676908  22.4447140  48.9367198  25.8096081  23.6307190  49.8668459
  22.5876738  20.2468501  44.8383381  23.5168798  20.3979661  44.6652348
  22.1667768  20.3352522  43.9832027  21.3865070  24.2719165  42.6081918
  21.2476155  23.9037950  43.4807856  20.5979666  24.7866805  42.4365876
  22.9370285  23.6500768  39.9970756  22.6020117  23.6101538  40.8928406
  22.4374231  22.9845484  39.5241166  16.9114529  19.0568398  45.5223337
  16.7734327  18.3248637  46.1234876  17.8219452  18.9677298  45.2407525
  19.5396830  18.7688357  45.0107017  20.2496448  18.1281550  44.9693635
  19.4966138  19.0201252  45.9333198  27.5283608  25.7055711  47.9313596
  27.4696154  25.0214931  47.2644179  27.9303127  26.4474701  47.4794222
  18.2525763  15.7553575  46.8302656  17.7163121  15.3044314  47.4824253
  17.6642472  15.8899484  46.0873121  16.5474307  32.5217625  40.7247315
  16.7870905  33.1536149  41.4026334  15.7043503  32.1705665  41.0112674
  17.6628022  15.2142227  29.3929120  16.7857489  15.0931027  29.0291367
  18.1385776  14.4228305  29.1408009  27.5301015  23.6695295  46.1627576
  26.6427794  23.3321216  46.2853975  28.0999567  22.9378326  46.3996341
   9.1830163  20.0019386  39.4870627   9.8701202  19.6881116  38.8991643
   9.0278291  20.9060751  39.2137879  13.9864885  14.8909583  43.9155651
  13.9023073  14.2835252  43.1806061  13.1647591  15.3818601  43.9165147
  21.0602169  28.3296747  43.1288819  20.9872340  29.1351718  43.6408124
  20.6179562  28.5288713  42.3036840  24.1588599  13.3763146  39.2825846
  24.6557298  12.6233109  38.9626916  23.3875580  13.4127463  38.7169055
  32.0118356  19.0803512  40.9244137  32.0008232  19.9628227  40.5538071
  31.1435735  18.7275063  40.7298675  23.5200852  28.2283581  45.2846978
  24.2328825  28.8631046  45.2122879  23.0290881  28.3247447  44.4686980
  25.2418379  22.1334834  36.8564269  24.3074658  22.2536296  36.6868974
  25.4195048  21.2307300  36.5924279  20.7423567  15.5180529  39.0097531
  20.3721355  14.9651570  39.6978436  21.2382660  14.9138663  38.4572531
  28.6290931  17.9752153  37.3914304  29.0951383  18.8080145  37.3174606
  29.0798431  17.5097135  38.0959562  18.5712766  25.9778024  46.1052549
  19.2722225  26.6114507  46.2581943  18.1007881  26.3192756  45.3448188
  26.6007593  10.3432740  41.4305205  25.6870673  10.5736967  41.5987412
  27.0300695  10.4271184  42.2819237  26.3714052  18.5322632  43.9305099
  25.7185502  18.7798539  43.2757552  26.7494432  17.7186770  43.5967576
  22.4201625  19.2742443  50.4171136  21.7442262  19.1736572  51.0873511
  23.2429259  19.1181657  50.8807133  14.1680484  25.5114380  43.0383651
  14.7533921  24.7658067  43.1711555  13.9705322  25.8218336  43.9220315
  17.0219139  28.5465627  38.0546094  16.3529514  29.0311755  37.5710134
  16.8832009  28.7934847  38.9689472   8.7598139  18.0819980  41.7588094
   8.7982238  17.5483570  42.5525212   8.2538432  17.5555185  41.1399072
  21.1624408  30.5809370  44.6528752  21.7142716  30.7440992  45.4177837
  21.5030601  31.1713808  43.9808777  16.1388901  12.9284520  45.2550637
  16.2030227  13.7899351  44.8428034  16.0756021  12.3158522  44.5222995
  26.0135282  25.4070628  50.5077406  26.5575186  26.0200586  50.0132361
  25.4322127  25.9650206  51.0244419  12.3906716  16.8084082  34.8342026
  12.6860157  15.8994760  34.7809079  11.4894752  16.7871821  34.5123028
  24.2992795  28.5291346  41.6392434  24.1743935  27.7281086  41.1303380
  24.9571886  29.0237539  41.1506404  15.9200963  14.8840078  40.8169574
  15.1987549  15.4976046  40.6777048  16.7094219  15.4197843  40.7386220
  26.3627703  26.3300366  43.2671984  25.4158039  26.2105717  43.1950311
  26.7110477  25.4422864  43.3498246  18.7227277  12.2194505  47.0910226
  19.2461679  12.4656802  47.8536535  18.5039610  13.0514540  46.6713363
  14.1194558  14.4898180  34.9581351  13.7907264  13.6095558  34.7756457
  14.4733929  14.4345848  35.8457740  23.3674137  26.1253082  39.4676336
  23.2199099  25.1969790  39.6483906  24.1927630  26.1473173  38.9833412
  17.2336381  14.7771149  35.3256829  17.5732454  15.3057071  34.6035437
  17.6808502  15.1151555  36.1015395  26.9708259  26.9481641  40.5541209
  27.8954806  26.7424502  40.4165660  26.8023562  26.6998042  41.4630551
  19.9279822  13.1608200  44.7759897  19.5876642  12.3616013  45.1780577
  19.2218828  13.4609911  44.2036730  20.5796294  10.2457512  43.2287220
  21.4022363   9.7717991  43.1066110  20.8234357  11.0247996  43.7285906
  19.2204528  13.2745771  33.5250121  19.9412891  13.6527024  33.0213838
  18.5969832  13.9934648  33.6285099  23.3635651  13.9790920  34.4608454
  23.5799265  14.8615558  34.1597282  22.8829718  13.5877133  33.7314096
  18.1034872  16.9376633  41.0379198  17.9579453  17.2516936  41.9303480
  17.6260076  17.5561533  40.4850097  19.9631255  13.9279181  41.0860088
  19.9492824  13.0320274  40.7492386  20.6803683  13.9349845  41.7198374
  21.8157386  14.3616521  43.1313215  21.5575164  15.2833592  43.1297546
  21.2842426  13.9646956  43.8213679  12.5780535  19.4781978  43.9766859
  12.0334003  20.2541785  44.1087134  13.4559884  19.8252782  43.8185981
  19.3668151  12.8093561  36.3547658  19.4884062  11.8810208  36.5538545
  19.0770194  12.8232247  35.4425973  22.2359342  10.4948472  39.4914378
  22.2581038  10.5587805  38.5366357  22.6527401   9.6552980  39.6854884
  32.6142966  20.2303731  37.5293600  33.0574112  19.4811057  37.1312724
  31.7369476  20.2213868  37.1467332  13.3646556  18.6051874  46.8697016
  12.6228292  18.7534509  47.4561647  13.0439301  18.8660139  46.0063766
  21.3090219  28.1467852  46.6677406  21.6177346  27.9016999  47.5400106
  22.1065701  28.3514490  46.1796277  21.3310831  30.3005762  38.8982783
  20.8915821  29.8082140  39.5915640  22.0818948  29.7578729  38.6574858
  13.8103170  26.4917303  38.9007411  14.6361190  26.1921074  38.5206054
  13.4597222  25.7224925  39.3497200  18.7784703  25.8443771  40.9705085
  18.1564713  25.1814476  40.6707312  19.4489570  25.8704903  40.2878732
  12.0111775  24.4103629  39.8596345  11.1743683  23.9825803  39.6780346
  11.9835421  24.6036072  40.7967136  29.3364076  24.8666682  49.8438728
  28.5459620  24.8490821  49.3043227  29.0997431  25.4054976  50.5987764
  29.4561952  21.7159148  47.1571456  29.5059956  21.5509156  48.0986979
  29.3475875  20.8486407  46.7669337  26.7465714  17.6990076  48.4730763
  27.6475577  17.5596541  48.1814761  26.8213688  17.8644531  49.4128940
  21.0808519  15.0756931  47.3183949  20.2111829  15.3690497  47.0466538
  21.3168000  15.6597376  48.0391213  30.9580148  24.1356090  47.4013478
  30.6664957  24.4986070  48.2376939  30.3452280  23.4223098  47.2226810
  32.1575831  21.7008970  39.9216048  32.9922722  22.1398774  40.0853608
  32.2934959  21.2247623  39.1024294  29.2067337  19.2588705  45.8693536
  29.6821458  19.4516351  45.0612387  28.2832902  19.3147890  45.6236919
  16.0950843  20.4212872  35.4524614  15.8496885  19.5175202  35.6504824
  16.2646758  20.4230022  34.5104092  23.7847553  11.2936548  44.8349370
  24.3029497  12.0297575  44.5095858  23.4302686  11.6000541  45.6696129
  15.3646491  16.1541229  32.9510775  14.6715736  16.2285584  32.2950811
  15.1198243  15.3901573  33.4732292  24.0360147   7.7136831  40.3550266
  24.3161901   7.0460020  40.9810693  24.8210754   7.9065926  39.8424930
  27.9069006  16.1354465  44.1021841  28.8586428  16.2352562  44.1234065
  27.7372456  15.3432733  44.6119926  25.9283385  13.2210048  44.2881242
  25.3333317  13.5015061  43.5927731  25.6433082  13.7103949  45.0597983
  30.3857083  19.3560584  43.2164141  30.3533403  18.4176585  43.4023825
  30.9957707  19.4344621  42.4829966  22.2240414  18.2256637  29.2591345
  23.1699519  18.0962845  29.3279763  21.8454659  17.4871299  29.7360773
  30.5351572  16.1471628  43.2622424  30.0190621  15.3630084  43.0752353
  31.4191520  15.8190344  43.4268944  28.1962299   9.8912643  39.2218237
  27.9987120   9.5827732  40.1061569  28.8062004  10.6174282  39.3516167
  36.2033633  20.4176591  42.3570178  36.9337022  20.1561879  42.9177881
  35.5940579  19.6805313  42.3972246  34.2848930  18.5584454  42.9544629
  33.5582094  18.4240419  42.3461121  33.8696217  18.8661282  43.7601347
  22.1079107  22.2774383  50.7192002  23.0282116  22.4552982  50.9132049
  22.0728690  21.3330429  50.5671701  20.4083331  16.1506614  29.1946230
  19.5014787  15.8539726  29.2708944  20.6859312  15.8536432  28.3280516
  11.3261272  17.4712977  39.6445277  11.0064056  16.6178285  39.3519651
  10.7794700  17.6861555  40.4003244  15.1041179  20.1875418  43.3614783
  15.3227189  21.1192526  43.3802817  15.5166953  19.8283392  44.1469587
  22.0245397  10.6943503  35.3490472  21.2146125  10.3490588  35.7245718
  22.7129814  10.3851047  35.9378083  23.9535945   9.7721550  36.9714768
  24.5066984  10.1917004  37.6304791  24.1906032   8.8457298  37.0137724
  19.1782116  13.0093549  29.3358209  20.0401280  13.3348447  29.5954027
  19.3632460  12.2225045  28.8231275  11.1949532  21.0915889  41.6138398
  10.5013003  20.6769841  41.1008353  11.9422523  21.1336425  41.0171817
  27.3314752  11.8822075  36.4793432  26.7513422  12.5406879  36.0971485
  27.0650685  11.0599420  36.0680850  25.7818319  11.2827133  38.6814753
  26.2818097  11.3943668  37.8729072  26.4253927  10.9788186  39.3215561
  19.8400315  19.1905763  51.5682594  19.3567396  19.9906123  51.7746483
  19.9261254  19.2013708  50.6150038  13.1086274  21.0234142  39.4904413
  13.0856962  21.1221830  38.5386296  13.4186911  21.8699293  39.8121579
  15.7673652  23.0810297  43.6051028  16.7216906  23.0494240  43.5380959
  15.5686176  22.6200921  44.4201253  16.3573034  21.6511413  46.1721825
  17.1765923  22.1455492  46.1956662  16.6309842  20.7343382  46.1439393
  26.1139631  14.0422166  35.5349781  25.2265486  14.3271816  35.3169975
  26.5293620  13.8815929  34.6877058  29.4654167  14.0668687  39.2504120
  30.2414557  14.5565139  39.5228737  28.7402301  14.4926741  39.7075989
  31.9026725  14.7796306  40.3078061  32.4971216  14.5392042  39.5971369
  31.9753309  14.0603437  40.9351597  14.1223881  28.6229917  40.6221225
  13.9878349  27.8630318  40.0559223  13.7055943  29.3470817  40.1550014
  26.0880654  19.5576702  35.7500071  26.0315856  20.0145253  34.9107703
  26.6408997  18.7967386  35.5722914  29.8985460  15.3466434  36.5750190
  29.6422394  14.9463069  37.4058398  29.2738328  16.0610227  36.4500330
  34.2097798  18.0862507  39.0821482  33.6497356  18.1555696  39.8553044
  33.6041301  17.9103491  38.3620978  17.2793007  29.5199234  40.8339668
  17.1625391  30.4644666  40.7318358  16.4585453  29.2172795  41.2225467
  24.1361341  23.0530395  52.3706163  25.0052500  23.2271047  52.0092798
  23.6568092  23.8724812  52.2481892  20.1311559  10.2489592  32.6237918
  20.1190229  11.1931432  32.7806189  21.0234981  10.0659737  32.3297380
  18.3047521  30.1727496  44.0495596  19.2074768  30.2051106  44.3662091
  18.0784891  29.2427947  44.0641932  20.0601123  28.9258482  40.7105675
  19.1096754  28.9260344  40.5970047  20.3633609  28.1791217  40.1941710
  23.9463678   6.8432369  36.8783855  23.1796074   6.2890855  37.0240538
  24.3574383   6.9154237  37.7398007  35.7953816  34.7619021  41.7751437
  36.4332226  34.6425768  41.0714778  35.6774659  35.7099865  41.8339390
  32.6043523  34.7146449  41.7112962  32.2662034  34.5987514  40.8233497
  33.4733291  34.3137614  41.6913968  28.4630338  36.5681925  37.7009853
  27.8995204  36.4771862  36.9326141  28.3482733  35.7481830  38.1812346
  33.0863306  35.8681301  47.6699168  33.0751947  35.4734099  46.7979671
  33.2483945  35.1347373  48.2632939  26.0094770  38.0633117  40.5394074
  26.8016062  37.7223941  40.1240373  26.2491421  38.1728092  41.4596227
  34.0429897  40.2352893  33.0124318  33.3917877  40.8206973  32.6258332
  34.8374260  40.7659088  33.0719356  29.8070567  38.6518412  46.6178352
  29.5160433  39.5564043  46.5025018  30.4427551  38.6934940  47.3322421
  30.7326774  36.0295261  43.2079711  31.3290346  35.8051283  42.4936674
  30.7901745  35.2880006  43.8105159  35.3495085  32.4870475  38.8504646
  36.1358174  32.0689898  38.4995063  35.6133789  33.3916567  39.0186294
  35.5205162  37.9243325  33.5493302  34.8850995  37.9977951  34.2614207
  35.1902569  38.5136924  32.8712382  40.7503512  32.4245708  39.7537624
  41.4828684  31.8544925  39.9875454  39.9942868  32.0367308  40.1944130
  32.3679632  34.8472949  36.9500966  32.0037839  34.3203570  37.6613888
  33.2246748  34.4571418  36.7767452  38.2728932  26.1367282  44.2132233
  37.9412257  27.0062693  43.9893448  37.6774546  25.8203566  44.8926263
  34.7660452  38.3379828  43.6128145  34.4661175  39.2404867  43.5043953
  34.4211511  38.0712011  44.4649298  28.2172933  34.7893625  39.6464850
  27.2923430  34.6569839  39.8542542  28.4657347  35.5687844  40.1434792
  38.1657596  30.8562368  41.2925583  37.2574473  30.7877776  40.9984344
  38.1145192  31.3334313  42.1207408  25.5781744  34.4326898  40.4808639
  25.7074126  34.6861377  41.3948051  24.8979196  35.0254606  40.1613294
  29.7481232  45.1024148  36.5799113  29.6705261  46.0531973  36.6587594
  29.1442875  44.7570021  37.2374039  32.2398462  32.2752014  49.2360480
  31.4631796  32.8345934  49.2263345  32.8789025  32.7608797  49.7575350
  40.0319242  29.0578806  43.0703457  39.3893622  29.3511340  42.4243251
  39.5274171  28.9431727  43.8756653  37.6859406  32.8041980  33.7589316
  38.5977262  33.0369366  33.5837013  37.1769053  33.3879024  33.1964394
  30.4944834  35.0837467  48.7978447  31.2359518  35.6222511  48.5213271
  29.7881819  35.7103756  48.9549999  35.9700173  37.2266607  47.3950608
  36.3783530  36.7849018  46.6505241  35.2477435  36.6519235  47.6484801
  32.3231244  32.1639214  44.7684165  33.1692439  32.5878628  44.9118814
  32.2629881  31.5072839  45.4622729  36.2928988  37.7867798  41.1502897
  35.6637851  37.9513512  40.4478965  35.9054650  38.2009408  41.9213861
  40.1718220  38.7222236  38.5047261  39.4869258  39.1021137  37.9544294
  40.2562069  39.3317563  39.2379209  35.4730689  29.8243583  46.4265339
  35.2291621  30.5785643  45.8899615  35.7490619  30.2028930  47.2612586
  37.4269152  36.3682195  45.1042605  37.6386047  37.0113955  44.4276986
  37.3798900  35.5344512  44.6364535  35.0295381  28.9800016  42.0079177
  34.1679860  29.2781269  42.2995914  35.0557815  29.1970415  41.0760209
  31.8456950  37.5242206  38.4152982  32.3095296  37.8029909  37.6257605
  31.5813748  36.6225651  38.2326073  28.7381031  37.0713688  41.3532746
  29.3082388  37.5000956  40.7150230  29.3289143  36.7896272  42.0516931
  29.2306198  32.2377115  49.5993757  28.6004858  32.9193396  49.8329154
  29.1242285  32.1260197  48.6546895  24.5251170  31.9048911  40.5259681
  23.7350224  32.1606440  40.0499792  25.0162417  32.7197249  40.6311722
  38.5414980  39.2454150  43.2764962  39.3632423  38.8434338  42.9947644
  38.5377382  39.1422385  44.2281078  32.3071583  38.7938194  45.4325672
  32.3716016  39.2558601  46.2683844  31.5982507  38.1635559  45.5607982
  22.8088873  32.1579402  42.9574672  23.0596911  33.0426412  43.2232248
  23.3448421  31.9784003  42.1849764  46.6320973  35.5892899  39.6249933
  45.8784681  35.0200297  39.4693938  46.7668514  35.5555563  40.5720568
  32.0219601  40.4606301  35.3004653  31.8865275  41.3057837  35.7289501
  32.5629413  40.6625579  34.5370587  28.5086940  26.5397881  51.9619008
  28.1153886  25.9864080  52.6366652  29.3253081  26.8508460  52.3525526
  27.2843883  41.0947495  37.9555331  27.4610511  42.0165460  37.7676315
  28.0800716  40.7805915  38.3849711  31.4254901  27.9555760  49.5539265
  32.1664615  28.5562913  49.4743727  31.6572824  27.2133398  48.9957307
  26.5696239  33.1412127  47.8317494  26.4549754  32.2397385  48.1324593
  25.7140757  33.3875824  47.4802311  33.6488077  41.0829868  49.4304995
  33.2051931  40.2966246  49.1125899  34.3105291  41.2709018  48.7648886
  28.4075198  42.6125669  43.9565673  28.9582623  42.4842733  43.1842667
  27.5686674  42.9120558  43.6060566  35.7469315  41.3632668  47.4586396
  35.7287790  42.1841549  46.9666665  36.6689235  41.2386743  47.6836537
  32.2042369  38.8776797  48.3009905  32.7370706  38.1165085  48.0709212
  31.6756450  38.5850449  49.0434059  35.3712064  23.9836863  43.8303546
  35.0276334  24.8738505  43.7542657  35.7391027  23.7938521  42.9673131
  23.4397915  36.3070394  36.6492148  24.2773137  36.7167402  36.4325856
  23.6176183  35.3669836  36.6192342  35.3362347  33.9745474  32.3375981
  34.8208970  34.7450079  32.5764369  35.0639655  33.3010610  32.9609043
  32.9209458  28.8195175  37.3961220  32.0651054  28.4302025  37.2166858
  33.3336410  28.8987136  36.5361005  34.4508605  26.3541518  41.7952780
  33.9473400  26.3171653  40.9820585  34.7439212  27.2634261  41.8549436
  30.6951491  26.4380248  40.8018961  31.5604487  26.2423057  40.4424851
  30.7628999  26.2090600  41.7288318  40.3096621  36.7277829  34.2729155
  39.5326064  36.3888988  33.8284317  40.9888102  36.7330452  33.5984120
  35.1248650  31.8472566  34.1635763  34.8198786  32.1618715  35.0145906
  36.0779092  31.9253986  34.2063096  33.5695082  38.0062790  35.8128717
  33.0416444  37.2715549  35.5001954  33.0682585  38.7837466  35.5668685
  38.5487928  36.2011810  40.9295763  37.8911602  36.8911071  41.0175891
  39.3528327  36.5908242  41.2729749  37.3593387  34.5556183  38.9799705
  37.8725269  35.1886175  39.4821414  38.0094611  33.9557378  38.6143065
  30.6036477  25.5423705  36.9010397  29.9500890  25.2272722  36.2767012
  30.5616951  24.9199445  37.6270220  31.7147682  35.8243000  28.8163690
  30.8074744  35.5932253  29.0154839  32.2118714  35.0280619  29.0037671
  34.6215761  44.5340507  31.7360376  33.9477460  44.8372204  32.3445334
  35.0081583  45.3369587  31.3865833  33.8374218  32.0305638  41.2258045
  32.9196779  32.2520585  41.0679733  34.2534361  32.1051949  40.3669752
  34.6209265  33.4297054  36.3560725  35.3681084  33.9418451  36.0467847
  34.8900855  33.1081107  37.2165119  32.8935916  35.9255595  33.3387680
  31.9847135  35.6414628  33.4360149  32.9230999  36.3454673  32.4790987
  38.1255183  39.5362184  37.1078847  37.6717510  38.6953094  37.1644038
  37.4949150  40.1723583  37.4453627  37.0688103  30.4654170  38.3379515
  36.3310859  29.9531556  38.6689757  37.3214876  30.0254552  37.5262792
  36.5688122  41.3738681  38.0428665  36.8611097  41.9343738  37.3241031
  37.0786743  41.6667242  38.7981824  37.1699730  23.2430422  38.9321284
  37.4758607  22.3827786  38.6447199  37.8952335  23.8348042  38.7320278
  31.4420810  33.5384215  39.4397475  31.4969419  32.5858052  39.3639952
  30.6312012  33.6943654  39.9238773  32.5912003  37.4664338  30.6775758
  32.1531433  36.7500197  30.2181396  33.3322444  37.6940453  30.1160850
  31.5321747  42.1519032  39.1322119  31.4897926  42.3779878  38.2030651
  32.4484446  41.9182407  39.2807920  34.9787381  32.6203100  46.0302748
  35.3336769  32.8474573  46.8897214  35.6259512  32.9521476  45.4080003
  40.7085118  35.7421535  36.7352077  40.5703017  35.9323131  35.8073266
  40.3521337  36.5040918  37.1920128  28.8727244  29.7279631  42.8149089
  29.5126624  29.5868390  42.1172052  28.0404775  29.4414144  42.4387691
  40.7354498  37.8098062  41.7463348  41.1691004  37.7173352  42.5946402
  41.4486079  37.7855563  41.1083364  29.6487548  39.0282061  38.9284081
  30.4428147  38.5332381  38.7266656  28.9379241  38.4999924  38.5651787
  34.4682393  41.4100157  43.2796449  34.5219415  41.9791093  44.0474165
  33.5997174  41.5802042  42.9150486  27.3480786  31.1117713  44.7620900
  28.0203840  30.9035075  44.1133549  26.5210573  30.9139799  44.3226132
  41.5970047  37.8521763  44.2796234  41.7905937  38.7567574  44.5255509
  41.4970666  37.3929182  45.1134819  33.2506358  27.7379654  46.7786561
  32.6034273  28.4369603  46.6851037  34.0207374  28.1715798  47.1462809
  33.4270492  35.5760419  44.8383381  34.3562552  35.7271578  44.6652348
  33.0061522  35.6644439  43.9832027  32.2258824  39.6011083  42.6081918
  32.0869910  39.2329867  43.4807856  31.4373420  40.1158722  42.4365876
  32.8206976  44.7020179  33.9507455  32.9958732  44.2308223  34.7653078
  32.1339764  45.3285946  34.1788716  33.7764039  38.9792686  39.9970756
  33.4413872  38.9393456  40.8928406  33.2767985  38.3137402  39.5241166
  27.7508283  34.3860316  45.5223337  27.6128081  33.6540555  46.1234876
  28.6613207  34.2969216  45.2407525  36.7123231  36.3248720  30.2707816
  36.0952402  35.5995548  30.1740869  36.2439719  37.0858080  29.9274890
  30.3790584  34.0980275  45.0107017  31.0890203  33.4573467  44.9693635
  30.3359892  34.3493170  45.9333198  29.0919518  31.0845493  46.8302656
  28.5556875  30.6336231  47.4824253  28.5036226  31.2191402  46.0873121
  27.3868061  47.8509542  40.7247315  27.6264660  48.4828066  41.4026334
  26.5437258  47.4997582  41.0112674  38.3694770  38.9987212  46.1627576
  37.4821549  38.6613134  46.2853975  38.9393321  38.2670244  46.3996341
  20.0223917  35.3311304  39.4870627  20.7094957  35.0173034  38.8991643
  19.8672046  36.2352669  39.2137879  24.8258639  30.2201501  43.9155651
  24.7416828  29.6127170  43.1806061  24.0041346  30.7110519  43.9165147
  31.8995923  43.6588665  43.1288819  31.8266095  44.4643636  43.6408124
  31.4573316  43.8580630  42.3036840  31.6885703  42.8960435  36.6391641
  30.9053225  43.4382115  36.7329865  32.3878448  43.4134414  37.0385882
  34.9982353  28.7055064  39.2825846  35.4951053  27.9525026  38.9626916
  34.2269335  28.7419381  38.7169055  42.8512110  34.4095430  40.9244137
  42.8401987  35.2920145  40.5538071  41.9829490  34.0566981  40.7298675
  34.3594607  43.5575499  45.2846978  35.0722579  44.1922964  45.2122879
  33.8684636  43.6539365  44.4686980  36.0812134  37.4626751  36.8564269
  35.1468413  37.5828214  36.6868974  36.2588802  36.5599218  36.5924279
  31.5817322  30.8472447  39.0097531  31.2115109  30.2943488  39.6978436
  32.0776414  30.2430581  38.4572531  39.4684685  33.3044071  37.3914304
  39.9345137  34.1372062  37.3174606  39.9192186  32.8389052  38.0959562
  29.4106520  41.3069942  46.1052549  30.1115980  41.9406425  46.2581943
  28.9401635  41.6484674  45.3448188  37.5360916  39.6487892  34.3900456
  37.8120760  39.5344487  35.2994330  36.6665415  39.2505377  34.3512629
  37.4401348  25.6724658  41.4305205  36.5264428  25.9028884  41.5987412
  37.8694449  25.7563102  42.2819237  37.2107806  33.8614550  43.9305099
  36.5579257  34.1090457  43.2757552  37.5888186  33.0478688  43.5967576
  34.1714980  43.8974243  38.0333269  34.3537375  43.0795899  38.4961022
  34.9947966  44.1141935  37.5958159  34.5057146  42.8242428  35.2948318
  35.0344912  42.3134883  34.6818480  34.7685365  42.5084958  36.1593851
  33.2595379  34.6034361  50.4171136  32.5836016  34.5028490  51.0873511
  34.0823013  34.4473574  50.8807133  25.0074238  40.8406297  43.0383651
  25.5927675  40.0949985  43.1711555  24.8099077  41.1510254  43.9220315
  27.8612894  43.8757545  38.0546094  27.1923269  44.3603672  37.5710134
  27.7225763  44.1226765  38.9689472  19.5991893  33.4111897  41.7588094
  19.6375993  32.8775488  42.5525212  19.0932186  32.8847103  41.1399072
  32.0018162  45.9101288  44.6528752  32.5536470  46.0732910  45.4177837
  32.3424356  46.5005726  43.9808777  26.9782655  28.2576438  45.2550637
  27.0423982  29.1191269  44.8428034  26.9149776  27.6450440  44.5222995
  26.4534928  30.3299570  48.9023671  27.0806967  29.9476648  49.5161195
  25.5962847  30.1113772  49.2679363  35.1386550  43.8583264  41.6392434
  35.0137689  43.0573003  41.1303380  35.7965641  44.3529457  41.1506404
  26.7594718  30.2131996  40.8169574  26.0381304  30.8267964  40.6777048
  27.5487974  30.7489761  40.7386220  37.2021458  41.6592284  43.2671984
  36.2551793  41.5397635  43.1950311  37.5504231  40.7714782  43.3498246
  29.5621031  27.5486423  47.0910226  30.0855433  27.7948719  47.8536535
  29.3433365  28.3806457  46.6713363  34.2067891  41.4545000  39.4676336
  34.0592854  40.5261707  39.6483906  35.0321385  41.4765091  38.9833412
  37.8102013  42.2773559  40.5541209  38.7348561  42.0716420  40.4165660
  37.6417316  42.0289960  41.4630551  30.7673576  28.4900118  44.7759897
  30.4270397  27.6907931  45.1780577  30.0612583  28.7901829  44.2036730
  31.4190048  25.5749430  43.2287220  32.2416117  25.1009908  43.1066110
  31.6628112  26.3539914  43.7285906  34.2029406  29.3082838  34.4608454
  34.4193020  30.1907475  34.1597282  33.7223473  28.9169051  33.7314096
  28.9428627  32.2668551  41.0379198  28.7973208  32.5808854  41.9303480
  28.4653831  32.8853451  40.4850097  30.8025010  29.2571099  41.0860088
  30.7886579  28.3612192  40.7492386  31.5197438  29.2641763  41.7198374
  32.6551141  29.6908439  43.1313215  32.3968918  30.6125510  43.1297546
  32.1236181  29.2938874  43.8213679  37.5997329  42.7959226  35.9103301
  37.7734207  42.2305649  35.1577153  38.0926221  43.5960121  35.7282791
  23.4174289  34.8073895  43.9766859  22.8727757  35.5833703  44.1087134
  24.2953639  35.1544700  43.8185981  33.0753096  25.8240390  39.4914378
  33.0974793  25.8879723  38.5366357  33.4921155  24.9844898  39.6854884
  43.4536720  35.5595649  37.5293600  43.8967866  34.8102974  37.1312724
  42.5763231  35.5505785  37.1467332  38.5872502  42.1125991  33.0100199
  39.2823406  42.7332683  33.2287514  38.9295652  41.2621342  33.2852577
  24.2040311  33.9343791  46.8697016  23.4622047  34.0826427  47.4561647
  23.8833055  34.1952057  46.0063766  40.4863925  39.5625696  34.5387530
  41.0115249  39.9012969  33.8136850  40.3986277  38.6272711  34.3550664
  32.1483974  43.4759770  46.6677406  32.4571100  43.2308916  47.5400106
  32.9459456  43.6806408  46.1796277  32.1704586  45.6297679  38.8982783
  31.7309576  45.1374058  39.5915640  32.9212703  45.0870647  38.6574858
  24.6496925  41.8209220  38.9007411  25.4754945  41.5212992  38.5206054
  24.2990977  41.0516843  39.3497200  29.6178458  41.1735688  40.9705085
  28.9958467  40.5106393  40.6707312  30.2883325  41.1996820  40.2878732
  22.8505530  39.7395547  39.8596345  22.0137438  39.3117721  39.6780346
  22.8229175  39.9327990  40.7967136  29.6902985  29.6517476  50.5637591
  29.7391141  30.5279599  50.1815360  30.2325499  29.1094869  49.9909234
  40.2955706  37.0451066  47.1571456  40.3453711  36.8801074  48.0986979
  40.1869629  36.1778325  46.7669337  29.1791965  39.7239612  34.4463545
  29.3280085  40.4075076  33.7930218  29.9858408  39.7044702  34.9613001
  37.5859468  33.0281994  48.4730763  38.4869331  32.8888459  48.1814761
  37.6607443  33.1936449  49.4128940  31.9202274  30.4048849  47.3183949
  31.0505583  30.6982415  47.0466538  32.1561754  30.9889294  48.0391213
  42.9969585  37.0300887  39.9216048  43.8316477  37.4690691  40.0853608
  43.1328714  36.5539541  39.1024294  40.0461091  34.5880622  45.8693536
  40.5215213  34.7808269  45.0612387  39.1226656  34.6439808  45.6236919
  34.6241308  26.6228466  44.8349370  35.1423251  27.3589493  44.5095858
  34.2696440  26.9292459  45.6696129  34.8753902  23.0428748  40.3550266
  35.1555656  22.3751937  40.9810693  35.6604509  23.2357844  39.8424930
  32.6787370  42.2187742  31.9175293  32.1061337  42.8377929  31.4645764
  33.2520164  42.7687104  32.4515214  38.7462760  31.4646382  44.1021841
  39.6980183  31.5644480  44.1234065  38.5766210  30.6724651  44.6119926
  36.7677140  28.5501966  44.2881242  36.1727072  28.8306978  43.5927731
  36.4826836  29.0395866  45.0597983  35.8984630  42.5024892  33.0483875
  36.8315303  42.4370454  33.2516750  35.8107843  43.3381159  32.5898407
  38.5272647  41.8190763  30.0087822  38.4486278  41.4850626  30.9023580
  39.3482313  42.3112531  30.0079295  41.2250838  34.6852502  43.2164141
  41.1927158  33.7468503  43.4023825  41.8351462  34.7636539  42.4829966
  41.3745326  31.4763545  43.2622424  40.8584375  30.6922002  43.0752353
  42.2585275  31.1482262  43.4268944  39.0356053  25.2204561  39.2218237
  38.8380874  24.9119649  40.1061569  39.6455759  25.9466200  39.3516167
  47.0427388  35.7468509  42.3570178  47.7730776  35.4853797  42.9177881
  46.4334333  35.0097231  42.3972246  45.1242685  33.8876371  42.9544629
  44.3975848  33.7532336  42.3461121  44.7089972  34.1953200  43.7601347
  32.9472861  37.6066301  50.7192002  33.8675871  37.7844900  50.9132049
  32.9122444  36.6622346  50.5671701  22.1655026  32.8004895  39.6445277
  21.8457811  31.9470203  39.3519651  21.6188454  33.0153473  40.4003244
  25.9434934  35.5167336  43.3614783  26.1620944  36.4484444  43.3802817
  26.3560708  35.1575310  44.1469587  32.8639152  26.0235421  35.3490472
  32.0539880  25.6782506  35.7245718  33.5523569  25.7142965  35.9378083
  34.7929700  25.1013468  36.9714768  35.3460739  25.5208921  37.6304791
  35.0299786  24.1749216  37.0137724  30.8162799  31.0900542  52.7517532
  30.7159526  32.0394898  52.6829623  30.5984341  30.7618780  51.8793602
  22.0343286  36.4207806  41.6138398  21.3406758  36.0061759  41.1008353
  22.7816277  36.4628343  41.0171817  38.1708507  27.2113993  36.4793432
  37.5907176  27.8698797  36.0971485  37.9044440  26.3891338  36.0680850
  36.6212073  26.6119051  38.6814753  37.1211852  26.7235585  37.8729072
  37.2647681  26.3080104  39.3215561  30.6794069  34.5197680  51.5682594
  30.1961151  35.3198040  51.7746483  30.7655008  34.5305625  50.6150038
  23.9480029  36.3526060  39.4904413  23.9250717  36.4513747  38.5386296
  24.2580665  37.1991211  39.8121579  26.6067407  38.4102215  43.6051028
  27.5610660  38.3786157  43.5380959  26.4079930  37.9492839  44.4201253
  27.1966789  36.9803331  46.1721825  28.0159678  37.4747410  46.1956662
  27.4703597  36.0635299  46.1439393  36.9533385  29.3714083  35.5349781
  36.0659240  29.6563734  35.3169975  37.3687374  29.2107847  34.6877058
  40.3047921  29.3960604  39.2504120  41.0808311  29.8857057  39.5228737
  39.5796055  29.8218659  39.7075989  42.7420480  30.1088224  40.3078061
  43.3364971  29.8683960  39.5971369  42.8147063  29.3895354  40.9351597
  24.9617635  43.9521835  40.6221225  24.8272103  43.1922235  40.0559223
  24.5449698  44.6762734  40.1550014  36.0976598  39.1358758  29.6297801
  36.8012449  39.3408761  30.2455456  35.3739247  39.7035520  29.8946884
  36.9274409  34.8868619  35.7500071  36.8709610  35.3437171  34.9107703
  37.4802751  34.1259304  35.5722914  40.7379215  30.6758351  36.5750190
  40.4816149  30.2754987  37.4058398  40.1132083  31.3902145  36.4500330
  45.0491553  33.4154424  39.0821482  44.4891110  33.4847614  39.8553044
  44.4435056  33.2395409  38.3620978  28.1186761  44.8491152  40.8339668
  28.0019145  45.7936584  40.7318358  27.2979208  44.5464713  41.2225467
  38.0063296  39.5741287  31.6796261  38.8408900  39.1422486  31.4973736
  37.8447639  39.4023301  32.6073155  37.6609188  36.0773401  33.0452600
  37.6057992  35.9117672  32.1041044  37.0355243  36.7849434  33.2014790
  22.4501703  31.3141465  46.8714022  23.0960567  30.8040419  47.3601247
  22.2418854  32.0510147  47.4457448  29.1441275  45.5019413  44.0495596
  30.0468522  45.5343024  44.3662091  28.9178646  44.5719864  44.0641932
  30.8994877  44.2550400  40.7105675  29.9490508  44.2552262  40.5970047
  31.2027364  43.5083135  40.1941710  34.7857433  22.1724286  36.8783855
  34.0189829  21.6182773  37.0240538  35.1968138  22.2446155  37.7398007
  26.7899194  28.4609082  50.9689036  27.6530656  28.1045887  51.1792361
  26.2164605  28.1222977  51.6564441  39.3024093  51.8973843  37.7009853
  38.7388958  51.8063780  36.9326141  39.1876488  51.0773747  38.1812346
  38.8079279  52.6533948  33.4111452  39.5810155  52.1062935  33.2724328
  39.1604678  53.5178197  33.6225914  41.1445557  48.8126614  31.0429902
  41.3971077  48.2908135  30.2813365  40.2070116  48.6492759  31.1456586
  46.1888839  47.8162392  38.8504646  46.9751929  47.3981815  38.4995063
  46.4527544  48.7208484  39.0186294  40.8641845  50.7154720  33.2454277
  40.7478103  50.0399623  33.9135362  40.9744105  50.2287094  32.4286430
  43.2073386  50.1764867  36.9500966  42.8431594  49.6495488  37.6613888
  44.0640502  49.7863336  36.7767452  42.8478873  45.2054767  31.9462315
  43.0153276  46.0735003  32.3132786  42.6576042  45.3682048  31.0223604
  39.0566688  50.1185542  39.6464850  38.1317184  49.9861756  39.8542542
  39.3051101  50.8979762  40.1434792  42.8268094  47.6612424  32.9308982
  42.7067719  48.1069475  33.7694462  42.1320683  48.0097742  32.3722520
  36.4175499  49.7618816  40.4808639  36.5467880  50.0153295  41.3948051
  35.7372950  50.3546524  40.1613294  48.5253160  48.1333897  33.7589316
  49.4371016  48.3661284  33.5837013  48.0162807  48.7170942  33.1964394
  45.8689135  44.3091933  42.0079177  45.0073614  44.6073187  42.2995914
  45.8951570  44.5262332  41.0760209  42.6850705  52.8534124  38.4152982
  43.1489050  53.1321827  37.6257605  42.4207503  51.9517568  38.2326073
  41.6219591  48.9757276  35.2242548  42.3243634  49.4278320  35.6916474
  41.2900219  48.3341095  35.8522441  35.3644925  47.2340829  40.5259681
  34.5743979  47.4898357  40.0499792  35.8556172  48.0489167  40.6311722
  37.3159670  47.5985408  37.4843158  36.5190833  47.7104102  38.0026654
  37.0885262  47.9372060  36.6184048  33.6482628  47.4871319  42.9574672
  33.8990666  48.3718329  43.2232248  34.1842176  47.3075921  42.1849764
  36.3142753  53.3073657  35.8732578  36.8267273  54.1016907  36.0238143
  36.9665465  52.6099947  35.8066179  38.1237637  56.4239413  37.9555331
  38.3004266  57.3457378  37.7676315  38.9194471  56.1097832  38.3849711
  46.2105819  39.3128781  43.8303546  45.8670088  40.2030422  43.7542657
  46.5784781  39.1230438  42.9673131  34.2791669  51.6362311  36.6492148
  35.1166891  52.0459320  36.4325856  34.4569937  50.6961753  36.6192342
  46.1756101  49.3037392  32.3375981  45.6602725  50.0741996  32.5764369
  45.9033410  48.6302528  32.9609043  43.7603213  44.1487093  37.3961220
  42.9044809  43.7593943  37.2166858  44.1730164  44.2279053  36.5361005
  45.2902359  41.6833436  41.7952780  44.7867155  41.6463571  40.9820585
  45.5832966  42.5926179  41.8549436  41.5345245  41.7672166  40.8018961
  42.3998242  41.5714974  40.4424851  41.6022754  41.5382517  41.7288318
  45.9642405  47.1764484  34.1635763  45.6592540  47.4910633  35.0145906
  46.9172847  47.2545904  34.2063096  39.1407564  43.9974374  38.1735328
  39.7151316  43.7749555  37.4408521  39.7278547  44.0663068  38.9263929
  39.4677151  46.0278835  32.1931213  38.6314463  46.3653521  32.5140488
  39.3281921  45.8927814  31.2558350  41.4430232  40.8715622  36.9010397
  40.7894644  40.5564640  36.2767012  41.4010706  40.2491363  37.6270220
  42.5541437  51.1534918  28.8163690  41.6468498  50.9224171  29.0154839
  43.0512469  50.3572537  29.0037671  44.6767972  47.3597556  41.2258045
  43.7590534  47.5812503  41.0679733  45.0928116  47.4343866  40.3669752
  45.4603020  48.7588972  36.3560725  46.2074839  49.2710369  36.0467847
  45.7294609  48.4373024  37.2165119  43.7329670  51.2547512  33.3387680
  42.8240889  50.9706545  33.4360149  43.7624754  51.6746591  32.4790987
  47.9081857  45.7946088  38.3379515  47.1704614  45.2823474  38.6689757
  48.1608631  45.3546470  37.5262792  48.0093484  38.5722340  38.9321284
  48.3152361  37.7119703  38.6447199  48.7346089  39.1639960  38.7320278
  34.3017840  48.9753027  37.3202882  34.1042240  48.3822387  36.5953948
  33.7464504  48.6705237  38.0378821  42.2814564  48.8676133  39.4397475
  42.3363174  47.9149969  39.3639952  41.4705766  49.0235572  39.9238773
  43.4305758  52.7956256  30.6775758  42.9925188  52.0792115  30.2181396
  44.1716199  53.0232371  30.1160850  40.2206924  47.4853193  37.1987854
  39.4074790  47.7847363  37.6053046  40.7165918  47.0908882  37.9162336
  39.7120999  45.0571548  42.8149089  40.3520378  44.9160307  42.1172052
  38.8798529  44.7706062  42.4387691  40.4881303  54.3573979  38.9284081
  41.2821901  53.8624299  38.7266656  39.7772995  53.8291842  38.5651787
  36.7964066  48.5017060  35.0043834  35.8661654  48.4401516  35.2213796
  36.8921538  47.9793013  34.2080475  36.7149615  45.0271873  37.5922076
  36.9756433  45.9417206  37.4831236  37.5366788  44.5596316  37.7418688
  39.3415531  45.8726062  29.3929120  38.4644998  45.7514863  29.0291367
  39.8173284  45.0812140  29.1408009  30.8617672  50.6603222  39.4870627
  31.5488711  50.3464952  38.8991643  30.7065800  51.5644586  39.2137879
  35.6652394  45.5493418  43.9155651  35.5810582  44.9419088  43.1806061
  34.8435100  46.0402437  43.9165147  45.8376108  44.0346982  39.2825846
  46.3344807  43.2816944  38.9626916  45.0663089  44.0711298  38.7169055
  42.4211076  46.1764365  39.0097531  42.0508864  45.6235405  39.6978436
  42.9170169  45.5722498  38.4572531  48.2795102  41.0016575  41.4305205
  47.3658182  41.2320802  41.5987412  48.7088204  41.0855019  42.2819237
  30.4385648  48.7403815  41.7588094  30.4769747  48.2067406  42.5525212
  29.9325941  48.2139021  41.1399072  37.8176410  43.5868356  45.2550637
  37.8817736  44.4483186  44.8428034  37.7543530  42.9742357  44.5222995
  34.0694225  47.4667917  34.8342026  34.3647666  46.5578596  34.7809079
  33.1682261  47.4455657  34.5123028  37.5988472  45.5423914  40.8169574
  36.8775058  46.1559882  40.6777048  38.3881728  46.0781679  40.7386220
  35.7982067  45.1482015  34.9581351  35.4694773  44.2679394  34.7756457
  36.1521438  45.0929684  35.8457740  38.9123890  45.4354985  35.3256829
  39.2519963  45.9640906  34.6035437  39.3596010  45.7735391  36.1015395
  42.2583803  40.9041348  43.2287220  43.0809872  40.4301826  43.1066110
  42.5021866  41.6831832  43.7285906  40.8992037  43.9329606  33.5250121
  41.6200400  44.3110859  33.0213838  40.2757341  44.6518483  33.6285099
  45.0423160  44.6374755  34.4608454  45.2586774  45.5199393  34.1597282
  44.5617227  44.2460969  33.7314096  39.7822381  47.5960468  41.0379198
  39.6366962  47.9100772  41.9303480  39.3047585  48.2145369  40.4850097
  41.6418764  44.5863016  41.0860088  41.6280333  43.6904110  40.7492386
  42.3591192  44.5933680  41.7198374  41.0455660  43.4677397  36.3547658
  41.1671571  42.5394043  36.5538545  40.7557703  43.4816083  35.4425973
  43.9146851  41.1532307  39.4914378  43.9368547  41.2171640  38.5366357
  44.3314910  40.3136816  39.6854884  35.4890679  57.1501138  38.9007411
  36.3148699  56.8504910  38.5206054  35.1384731  56.3808760  39.3497200
  33.6899284  55.0687464  39.8596345  32.8531192  54.6409639  39.6780346
  33.6622930  55.2619908  40.7967136  40.0185719  55.0531529  34.4463545
  40.1673840  55.7366994  33.7930218  40.8252163  55.0336620  34.9613001
  37.7738352  51.0796707  35.4524614  37.5284394  50.1759037  35.6504824
  37.9434267  51.0813858  34.5104092  37.0434000  46.8125065  32.9510775
  36.3503245  46.8869420  32.2950811  36.7985752  46.0485408  33.4732292
  45.7147656  38.3720666  40.3550266  45.9949410  37.7043855  40.9810693
  46.4998263  38.5649762  39.8424930  43.9027923  48.8840473  29.2591345
  44.8487028  48.7546681  29.3279763  43.5242168  48.1455135  29.7360773
  49.8749808  40.5496479  39.2218237  49.6774629  40.2411567  40.1061569
  50.4849513  41.2758118  39.3516167  42.0870840  46.8090449  29.1946230
  41.1802296  46.5123562  29.2708944  42.3646821  46.5120267  28.3280516
  33.0048781  48.1296812  39.6445277  32.6851565  47.2762121  39.3519651
  32.4582209  48.3445391  40.4003244  43.7032906  41.3527339  35.3490472
  42.8933634  41.0074424  35.7245718  44.3917323  41.0434882  35.9378083
  45.6323454  40.4305386  36.9714768  46.1854493  40.8500839  37.6304791
  45.8693541  39.5041134  37.0137724  40.8569625  43.6677384  29.3358209
  41.7188789  43.9932283  29.5954027  41.0419969  42.8808880  28.8231275
  32.8737041  51.7499724  41.6138398  32.1800512  51.3353677  41.1008353
  33.6210032  51.7920260  41.0171817  49.0102261  42.5405911  36.4793432
  48.4300931  43.1990715  36.0971485  48.7438194  41.7183255  36.0680850
  47.4605828  41.9410968  38.6814753  47.9605606  42.0527503  37.8729072
  48.1041436  41.6372021  39.3215561  34.7873783  51.6817978  39.4904413
  34.7644471  51.7805665  38.5386296  35.0974420  52.5283129  39.8121579
  47.7927139  44.7006001  35.5349781  46.9052995  44.9855652  35.3169975
  48.2081129  44.5399764  34.6877058  51.1441676  44.7252522  39.2504120
  51.9202066  45.2148975  39.5228737  50.4189810  45.1510576  39.7075989
  47.7668163  50.2160537  35.7500071  47.7103365  50.6729088  34.9107703
  48.3196506  49.4551222  35.5722914  51.5772969  46.0050269  36.5750190
  51.3209903  45.6046905  37.4058398  50.9525837  46.7194063  36.4500330
  41.8099068  40.9073427  32.6237918  41.7977738  41.8515267  32.7806189
  42.7022490  40.7243573  32.3297380  45.6251187  37.5016204  36.8783855
  44.8583583  36.9474691  37.0240538  46.0361892  37.5738073  37.7398007
  17.6236585  -1.7547870  24.4255160  17.0601450  -1.8457933  23.6571448
  17.5088980  -2.5747965  24.9057652  15.1701017  -0.2596678  27.2639380
  15.9622309  -0.6005854  26.8485680  15.4097667  -0.1501703  28.1841534
  23.2036144   1.9123098  19.7369625  22.5524124   2.4977178  19.3503638
  23.9980507   2.4429293  19.7964662  17.1291771  -0.9987765  20.1356759
  17.9022647  -1.5458778  19.9969635  17.4817170  -0.1343516  20.3471220
  18.9676814   0.3288617  33.3423658  18.6766680   1.2334248  33.2270325
  19.6033798   0.3705145  34.0567728  19.8933021  -2.2934534  29.9325018
  20.4896593  -2.5178512  29.2181981  19.9507992  -3.0349789  30.5350466
  24.6811409  -0.3986470  20.2738609  24.0457242  -0.3251844  20.9859514
  24.3508815   0.1907129  19.5957688  19.1854338  -2.9366993  19.9699584
  19.0690596  -3.6122090  20.6380668  19.2956598  -3.4234619  19.1531737
  23.9266699   0.0150033  30.3373452  23.6267422   0.9175072  30.2289259
  23.5817758  -0.2517784  31.1894605  18.9087479   6.7794353  23.3044420
  18.8311508   7.7302178  23.3832900  18.3049122   6.4340226  23.9619346
  19.6551081  -3.2392328  35.5223754  20.3965765  -2.7007284  35.2458577
  18.9488066  -2.6126039  35.6795305  25.1306420  -1.0963188  34.1195915
  25.5389776  -1.5380777  33.3750547  24.4083682  -1.6710560  34.3730108
  25.4535235  -0.5361997  27.8748204  24.8244097  -0.3716283  27.1724272
  25.0660897  -0.1220387  28.6459168  29.3324467   0.3992441  25.2292568
  28.6475505   0.7791342  24.6789601  29.4168316   1.0087768  25.9624515
  21.0063197  -0.7987589  25.1398289  21.4701542  -0.5199886  24.3502912
  20.7419995  -1.7004144  24.9571380  17.8987278  -1.2516107  28.0778052
  18.4688635  -0.8228839  27.4395537  18.4895390  -1.5333523  28.7762238
  27.7021226   0.9224355  30.0010269  28.5238670   0.5204543  29.7192950
  27.6983629   0.8192589  30.9526384  21.4677830   0.4708399  32.1570979
  21.5322262   0.9328806  32.9929151  20.7588754  -0.1594236  32.2853289
  21.1825847   2.1376506  22.0249959  21.0471522   2.9828042  22.4534807
  21.7235660   2.3395784  21.2615893  14.6355245  -0.3448056  22.5977885
  15.1479765   0.4495194  22.7483449  15.2877958  -1.0421765  22.5311486
  16.4450130   2.7717700  24.6800638  16.6216758   3.6935665  24.4921622
  17.2406963   2.4576120  25.1095017  22.8094324   2.7600073  36.1550302
  22.3658178   1.9736451  35.8371206  23.4711537   2.9479223  35.4894192
  17.5681445   4.2895874  30.6810980  18.1188870   4.1612938  29.9087974
  16.7292921   4.5890763  30.3305873  24.9075562   3.0402873  34.1831703
  24.8894037   3.8611754  33.6911972  25.8295482   2.9156948  34.4081844
  21.3648616   0.5547002  35.0255211  21.8976953  -0.2064710  34.7954519
  20.8362697   0.2620654  35.7679366  22.7301329  -0.3167006  22.5374023
  22.2022690  -1.0514246  22.2247261  22.2288831   0.4607671  22.2913992
  20.8753929  -2.4986795  15.5408996  19.9680991  -2.7297542  15.7400145
  21.3724961  -3.2949176  15.7282978  23.7822008   6.2110712  18.4605682
  23.1083707   6.5142409  19.0690640  24.1687830   7.0139792  18.1111139
  22.0542162  -2.3974200  20.0632986  21.1453382  -2.6815168  20.1605456
  22.0837246  -1.9775122  19.2036293  27.2861430   1.2132389  23.8324154
  26.8323757   0.3723299  23.8889344  26.6555397   1.8493787  24.1698934
  25.7294369   3.0508886  24.7673972  26.0217343   3.6113943  24.0486338
  26.2392990   3.3437447  25.5227131  21.7518250  -0.8565457  17.4021065
  21.3137680  -1.5729598  16.9426702  22.4928691  -0.6289342  16.8406156
  20.6927994   3.8289237  25.8567425  20.6504173   4.0550083  24.9275957
  21.6090693   3.5952611  26.0053226  18.8093795   0.7052266  25.6529388
  19.6034393   0.2102586  25.4511963  18.0985487   0.1770129  25.2897093
  23.6288639   3.0870361  30.0041756  23.6825662   3.6561298  30.7719471
  22.7603421   3.2572246  29.6395793  25.8191403  -0.3201289  36.5782421
  25.6676909  -0.5490738  35.6612505  25.8096082   0.6369312  36.5913766
  22.5876739  -2.7469377  31.5628687  23.5168799  -2.5958217  31.3897655
  22.1667769  -2.6585356  30.7077334  21.3865071   1.2781288  29.3327225
  21.2476157   0.9100072  30.2053163  20.5979667   1.7928927  29.1611183
  21.9813223   6.3790384  20.6752762  22.1564979   5.9078428  21.4898384
  21.2946011   7.0056151  20.9034022  22.9370286   0.6562891  26.7216063
  22.6020119   0.6163661  27.6173713  22.4374232  -0.0092393  26.2486473
  27.5283609   2.7117833  34.6558903  27.4696156   2.0277053  33.9889486
  27.9303128   3.4536823  34.2039529  16.5474308   9.5279747  27.4492622
  16.7870906  10.1598271  28.1271640  15.7043505   9.1767787  27.7357981
  27.5301017   0.6757417  32.8872882  26.6427795   0.3383339  33.0099281
  28.0999568  -0.0559552  33.1241648  21.0602170   5.3358870  29.8534126
  20.9872342   6.1413841  30.3653430  20.6179563   5.5350835  29.0282147
  20.8491950   4.5730640  23.3636947  20.0659472   5.1152320  23.4575172
  21.5484695   5.0904619  23.7631188  23.5200854   5.2345704  32.0092284
  24.2328826   5.8693168  31.9368186  23.0290882   5.3309570  31.1932286
  25.2418381  -0.8603044  23.5809576  24.3074659  -0.7401581  23.4114280
  25.4195049  -1.7630577  23.3169586  18.5712767   2.9840147  32.8297855
  19.2722227   3.6176630  32.9827249  18.1007882   3.3254879  32.0693494
  26.6967163   1.3258097  21.1145762  26.9727007   1.2114691  22.0239636
  25.8271662   0.9275582  21.0757935  23.3321227   5.5744448  24.7578576
  23.5143622   4.7566104  25.2206328  24.1554213   5.7912140  24.3203466
  23.6663393   4.5012633  22.0193624  24.1951159   3.9905087  21.4063786
  23.9291612   4.1855163  22.8839157  14.1680485   2.5176502  29.7628958
  14.7533922   1.7720190  29.8956862  13.9705324   2.8280459  30.6465622
  17.0219140   5.5527750  24.7791400  16.3529516   6.0373877  24.2955440
  16.8832010   5.7996970  25.6934779  21.1624409   7.5871493  31.3774059
  21.7142717   7.7503115  32.1423144  21.5030602   8.1775931  30.7054083
  26.0135283   2.4132751  37.2322713  26.5575187   3.0262709  36.7377668
  25.4322128   2.9712329  37.7489726  24.2992796   5.5353469  28.3637741
  24.1743936   4.7343208  27.8548686  24.9571887   6.0299662  27.8751711
  26.3627705   3.3362489  29.9917291  25.4158040   3.2167840  29.9195618
  26.7110478   2.4484987  30.0743552  23.3674138   3.1315205  26.1921643
  23.2199100   2.2031912  26.3729213  24.1927632   3.1535296  25.7078718
  26.9708260   3.9543764  27.2786516  27.8954807   3.7486625  27.1410967
  26.8023563   3.7060165  28.1875857  26.7603576   4.4729431  22.6348607
  26.9340454   3.9075854  21.8822460  27.2532467   5.2730326  22.4528097
  27.7478749   3.7896195  19.7345506  28.4429653   4.4102888  19.9532820
  28.0901899   2.9391547  20.0097883  29.6470172   1.2395901  21.2632836
  30.1721496   1.5783174  20.5382156  29.5592524   0.3042916  21.0795971
  21.3090220   5.1529975  33.3922713  21.6177347   4.9079121  34.2645413
  22.1065702   5.3576613  32.9041583  21.3310832   7.3067884  25.6228090
  20.8915823   6.8144263  26.3160946  22.0818949   6.7640852  25.3820165
  13.8103171   3.4979425  25.6252718  14.6361191   3.1983197  25.2451361
  13.4597223   2.7287048  26.0742506  18.7784705   2.8505893  27.6950391
  18.1564714   2.1876598  27.3952619  19.4489571   2.8767025  27.0124039
  12.0111776   1.4165752  26.5841651  11.1743685   0.9887926  26.4025652
  11.9835422   1.6098195  27.5212442  29.3364078   1.8728805  36.5684034
  28.5459621   1.8552943  36.0288534  29.0997432   2.4117098  37.3233071
  18.3398211   1.4009817  21.1708852  18.4886332   2.0845281  20.5175524
  19.1464655   1.3814907  21.6858307  30.9580150   1.1418213  34.1258784
  30.6664958   1.5048193  34.9622245  30.3452281   0.4285221  33.9472116
  21.8393617   3.8957947  18.6420599  21.2667584   4.5148134  18.1891071
  22.4126411   4.4457309  19.1760521  25.0590877   4.1795097  19.7729181
  25.9921550   4.1140659  19.9762057  24.9714090   5.0151364  19.3143714
  27.6878893   3.4960968  16.7333129  27.6092525   3.1620831  17.6268887
  28.5088560   3.9882736  16.7324601  22.1079108  -0.7163494  37.4437309
  23.0282117  -0.5384895  37.6377355  22.0728691  -1.6607449  37.2917008
  19.8400316  -3.8032115  38.2927900  19.3567398  -3.0031755  38.4991789
  19.9261255  -3.7924170  37.3395344  15.7673653   0.0872420  30.3296334
  16.7216907   0.0556362  30.2626266  15.5686177  -0.3736956  31.1446560
  16.3573036  -1.3426464  32.8967132  17.1765925  -0.8482385  32.9201969
  16.6309843  -2.2594496  32.8684699  14.1223882   5.6292039  27.3466532
  13.9878350   4.8692440  26.7804530  13.7055944   6.3532939  26.8795321
  25.2582845   0.8128963  16.3543107  25.9618695   1.0178966  16.9700763
  24.5345494   1.3805725  16.6192191  17.2793008   6.5261356  27.5584975
  17.1625392   7.4706789  27.4563665  16.4585454   6.2234918  27.9470774
  27.1669543   1.2511492  18.4041567  28.0015147   0.8192691  18.2219042
  27.0053886   1.0793506  19.3318462  24.1361342   0.0592517  39.0951469
  25.0052502   0.2333170  38.7338104  23.6568093   0.8786934  38.9727199
  18.3047522   7.1789618  30.7740903  19.2074769   7.2113229  31.0907398
  18.0784892   6.2490069  30.7887239  20.0601124   5.9320605  27.4350982
  19.1096755   5.9322467  27.3215354  20.3633610   5.1853339  26.9187016
  35.7953818  11.7681143  28.4996744  36.4332228  11.6487891  27.7960084
  35.6774661  12.7161987  28.5584696  32.6043524  11.7208571  28.4358269
  32.2662036  11.6049636  27.5478804  33.4733292  11.3199737  28.4159275
  28.4630340  13.5744048  24.4255160  27.8995205  13.4833985  23.6571448
  28.3482735  12.7543952  24.9057652  33.0863307  12.8743423  34.3944474
  33.0751948  12.4796221  33.5224978  33.2483946  12.1409496  34.9878246
  26.0094772  15.0695239  27.2639380  26.8016064  14.7286064  26.8485680
  26.2491422  15.1790214  28.1841534  34.0429898  17.2415016  19.7369625
  33.3917878  17.8269096  19.3503638  34.8374261  17.7721210  19.7964662
  27.9685526  14.3304153  20.1356759  28.7416402  13.7833140  19.9969635
  28.3210924  15.1948402  20.3471220  29.8070568  15.6580535  33.3423658
  29.5160434  16.5626166  33.2270325  30.4427553  15.6997063  34.0567728
  30.7326775  13.0357383  29.9325018  31.3290347  12.8113406  29.2181981
  30.7901747  12.2942129  30.5350466  30.3051803  10.4896819  17.7675209
  30.5577324   9.9678340  17.0058672  29.3676362  10.3262964  17.8701893
  35.3495086   9.4932597  25.5749952  36.1358175   9.0752020  25.2240369
  35.6133791  10.3978689  25.7431601  35.5205164  14.9305447  20.2738609
  34.8850997  15.0040074  20.9859514  35.1902570  15.5199046  19.5957688
  40.7503513   9.4307830  26.4782931  41.4828685   8.8607047  26.7120760
  39.9942869   9.0429431  26.9189436  30.0248092  12.3924925  19.9699584
  29.9084350  11.7169828  20.6380668  30.1350352  11.9057299  19.1531737
  32.3679633  11.8535072  23.6746273  32.0037840  11.3265693  24.3859195
  33.2246749  11.4633541  23.5012759  38.2728934   3.1429404  30.9377539
  37.9412258   4.0124815  30.7138754  37.6774547   2.8265688  31.6171570
  32.0085120   6.8824972  18.6707622  32.1759522   7.7505208  19.0378093
  31.8182289   7.0452253  17.7468911  34.7660453  15.3441950  30.3373452
  34.4661176  16.2466989  30.2289259  34.4211513  15.0774134  31.1894605
  28.2172935  11.7955747  26.3710156  27.2923431  11.6631961  26.5787848
  28.4657348  12.5749967  26.8680099  38.1657597   7.8624491  28.0170889
  37.2574474   7.7939899  27.7229650  38.1145193   8.3396436  28.8452715
  31.9874341   9.3382629  19.6554288  31.8673966   9.7839680  20.4939769
  31.2926929   9.6867947  19.0967827  25.5781746  11.4389021  27.2053946
  25.7074127  11.6923500  28.1193357  24.8979197  12.0316729  26.8858601
  32.2398463   9.2814136  35.9605787  31.4631797   9.8408056  35.9508651
  32.8789026   9.7670919  36.4820657  40.0319243   6.0640929  29.7948763
  39.3893624   6.3573462  29.1488558  39.5274172   5.9493849  30.6001960
  37.6859407   9.8104102  20.4834623  38.5977263  10.0431489  20.3082320
  37.1769054  10.3941146  19.9209701  30.4944835  12.0899590  35.5223754
  31.2359519  12.6284634  35.2458577  29.7881821  12.7165878  35.6795305
  35.9700175  14.2328730  34.1195915  36.3783531  13.7911141  33.3750547
  35.2477436  13.6581358  34.3730108  32.3231245   9.1701337  31.4929472
  33.1692440   9.5940750  31.6364121  32.2629882   8.5134961  32.1868035
  36.2928989  14.7929921  27.8748204  35.6637852  14.9575635  27.1724272
  35.9054651  15.2071530  28.6459168  40.1718221  15.7284359  25.2292568
  39.4869259  16.1083260  24.6789601  40.2562071  16.3379685  25.9624515
  35.4730690   6.8305705  33.1510646  35.2291622   7.5847766  32.6144921
  35.7490621   7.2091053  33.9857893  37.4269153  13.3744318  31.8287911
  37.6386048  14.0176077  31.1522292  37.3798901  12.5406634  31.3609841
  35.0295382   5.9862138  28.7324483  34.1679861   6.2843392  29.0241221
  35.0557817   6.2032537  27.8005516  31.8456951  14.5304329  25.1398289
  32.3095297  14.8092032  24.3502912  31.5813749  13.6287773  24.9571380
  28.7381032  14.0775810  28.0778052  29.3082389  14.5063079  27.4395537
  29.3289144  13.7958395  28.7762238  30.7825837  10.6527481  21.9487854
  31.4849881  11.1048525  22.4161781  30.4506466  10.0111300  22.5767747
  29.2306199   9.2439238  36.3239064  28.6004859   9.9255519  36.5574460
  29.1242287   9.1322319  35.3792202  24.5251171   8.9111034  27.2504988
  23.7350225   9.1668562  26.7745098  25.0162419   9.7259372  27.3557028
  38.5414981  16.2516273  30.0010269  39.3632425  15.8496460  29.7192950
  38.5377384  16.1484507  30.9526384  26.4765917   9.2755613  24.2088464
  25.6797080   9.3874307  24.7271960  26.2491509   9.6142265  23.3429355
  32.3071584  15.8000316  32.1570979  32.3716017  16.2620724  32.9929151
  31.5982508  15.1697681  32.2853289  22.8088874   9.1641524  29.6819979
  23.0596913  10.0488534  29.9477555  23.3448423   8.9846126  28.9095070
  46.6320974  12.5955021  26.3495240  45.8784682  12.0262420  26.1939245
  46.7668515  12.5617686  27.2965875  28.5086942   3.5460004  38.6864315
  28.1153887   2.9926202  39.3611959  29.3253082   3.8570582  39.0770832
  25.4748999  14.9843862  22.5977885  25.9873520  15.7787112  22.7483449
  26.1271712  14.2870152  22.5311486  31.4254903   4.9617883  36.2784571
  32.1664616   5.5625036  36.1989034  31.6572825   4.2195521  35.7202614
  26.5696241  10.1474250  34.5562801  26.4549756   9.2459507  34.8569900
  25.7140758  10.3937947  34.2047617  33.6488078  18.0891990  36.1550302
  33.2051933  17.3028369  35.8371206  34.3105292  18.2771141  35.4894192
  35.7469316  18.3694790  34.1831703  35.7287792  19.1903671  33.6911972
  36.6689236  18.2448865  34.4081844  32.2042371  15.8838920  35.0255211
  32.7370707  15.1227208  34.7954519  31.6756452  15.5912572  35.7679366
  23.4397916  13.3132516  23.3737455  24.2773138  13.7229524  23.1571163
  23.6176184  12.3731958  23.3437649  35.3362348  10.9807597  19.0621288
  34.8208972  11.7512201  19.3009675  35.0639657  10.3072733  19.6854349
  32.9209459   5.8257298  24.1206526  32.0651056   5.4364148  23.9412165
  33.3336411   5.9049258  23.2606312  34.4508606   3.3603641  28.5198086
  33.9473401   3.3233776  27.7065891  34.7439213   4.2696384  28.5794743
  30.6951492   3.4442371  27.5264268  31.5604489   3.2485179  27.1670157
  30.7629001   3.2152722  28.4533625  40.3096622  13.7339951  20.9974461
  39.5326065  13.3951111  20.5529624  40.9888103  13.7392575  20.3229427
  35.1248651   8.8534689  20.8881069  34.8198787   9.1680838  21.7391212
  36.0779094   8.9316109  20.9308402  33.5695083  15.0124912  22.5374023
  33.0416445  14.2777672  22.2247261  33.0682586  15.7899589  22.2913992
  38.5487929  13.2073933  27.6541069  37.8911604  13.8973194  27.7421198
  39.3528328  13.5970365  27.9975056  28.3013811   5.6744578  24.8980635
  28.8757563   5.4519760  24.1653828  28.8884793   5.7433273  25.6509236
  37.3593388  11.5618305  25.7045011  37.8725270  12.1948297  26.2066721
  38.0094612  10.9619501  25.3388371  28.6283398   7.7049039  18.9176520
  27.7920710   8.0423726  19.2385795  28.4888168   7.5698019  17.9803657
  30.6036479   2.5485827  23.6255704  29.9500891   2.2334845  23.0012319
  30.5616953   1.9261568  24.3515527  31.7147683  12.8305122  15.5408996
  30.8074745  12.5994376  15.7400145  32.2118715  12.0342742  15.7282978
  34.6215762  21.5402630  18.4605682  33.9477461  21.8434326  19.0690640
  35.0081584  22.3431710  18.1111139  33.8374219   9.0367761  27.9503352
  32.9196780   9.2582708  27.7925040  34.2534363   9.1114071  27.0915059
  34.6209267  10.4359177  23.0806032  35.3681086  10.9480574  22.7713154
  34.8900856  10.1143229  23.9410426  32.8935917  12.9317717  20.0632986
  31.9847136  12.6476750  20.1605456  32.9231001  13.3516796  19.2036293
  38.1255184  16.5424307  23.8324154  37.6717511  15.7015217  23.8889344
  37.4949151  17.1785705  24.1698934  37.0688104   7.4716293  25.0624821
  36.3310861   6.9593679  25.3935064  37.3214877   7.0316674  24.2508098
  23.4624087  10.6523231  24.0448189  23.2648487  10.0592592  23.3199255
  22.9070751  10.3475442  24.7624127  31.4420811  10.5446338  26.1642782
  31.4969421   9.5920174  26.0885258  30.6312013  10.7005777  26.6484080
  32.5912005  14.4726461  17.4021065  32.1531435  13.7562320  16.9426702
  33.3322446  14.7002576  16.8406156  29.3813171   9.1623398  23.9233161
  28.5681036   9.4617568  24.3298353  29.8772165   8.7679086  24.6407643
  34.9787383   9.6265222  32.7548054  35.3336770   9.8536695  33.6142520
  35.6259514   9.9583599  32.1325310  40.7085119  12.7483658  23.4597383
  40.5703018  12.9385254  22.5318573  40.3521338  13.5103041  23.9165435
  28.8727246   6.7341753  29.5394395  29.5126625   6.5930512  28.8417359
  28.0404776   6.4476267  29.1632997  40.7354499  14.8160185  28.4708655
  41.1691006  14.7235474  29.3191709  41.4486080  14.7917685  27.8328671
  29.6487549  16.0344184  25.6529388  30.4428148  15.5394504  25.4511963
  28.9379242  15.5062047  25.2897093  34.4682394  18.4162279  30.0041756
  34.5219416  18.9853215  30.7719471  33.5997175  18.5864164  29.6395793
  25.9570313  10.1787265  21.7289141  25.0267901  10.1171721  21.9459103
  26.0527785   9.6563218  20.9325782  25.8755862   6.7042078  24.3167382
  26.1362679   7.6187411  24.2076543  26.6973034   6.2366521  24.4663995
  27.3480787   8.1179835  31.4866207  28.0203841   7.9097197  30.8378856
  26.5210574   7.9201921  31.0471439  41.5970049  14.8583886  31.0041540
  41.7905939  15.7629696  31.2500815  41.4970667  14.3991305  31.8380125
  33.2506359   4.7441776  33.5031868  32.6034274   5.4431726  33.4096344
  34.0207375   5.1777920  33.8708116  36.6585157  15.0090628  36.5782421
  36.5070664  14.7801180  35.6612505  36.6489837  15.9661230  36.5913766
  33.4270494  12.5822541  31.5628687  34.3562554  12.7333701  31.3897655
  33.0061524  12.6706562  30.7077334  33.7764041  15.9854808  26.7216063
  33.4413873  15.9455578  27.6173713  33.2767986  15.3199524  26.2486473
  27.7508285  11.3922438  32.2468644  27.6128083  10.6602677  32.8480183
  28.6613208  11.3031338  31.9652832  36.7123232  13.3310843  16.9953122
  36.0952403  12.6057671  16.8986175  36.2439721  14.0920203  16.6520197
  30.3790585  11.1042398  31.7352324  31.0890204  10.4635590  31.6938942
  30.3359893  11.3555292  32.6578504  38.3677364  18.0409751  34.6558903
  38.3089910  17.3568971  33.9889486  38.7696882  18.7828741  34.2039529
  29.0919519   8.0907616  33.5547963  28.5556876   7.6398354  34.2069559
  28.5036228   8.2253524  32.8118427  28.5021778   7.5496267  16.1174427
  27.6251245   7.4285068  15.7536673  28.9779531   6.7582345  15.8653315
  38.3694771  16.0049335  32.8872882  37.4821550  15.6675257  33.0099281
  38.9393322  15.2732366  33.1241648  20.0223918  12.3373427  26.2115934
  20.7094958  12.0235157  25.6236949  19.8672047  13.2414791  25.9383185
  24.8258640   7.2263623  30.6400958  24.7416829   6.6189293  29.9051368
  24.0041347   7.7172642  30.6410454  34.9982354   5.7117187  26.0071153
  35.4951054   4.9587149  25.6872223  34.2269336   5.7481503  25.4414362
  42.8512112  11.4157552  27.6489444  42.8401988  12.2982268  27.2783377
  41.9829491  11.0629103  27.4543981  34.3594608  20.5637621  32.0092284
  35.0722580  21.1985086  31.9368186  33.8684637  20.6601487  31.1932286
  36.0812135  14.4688874  23.5809576  35.1468414  14.5890336  23.4114280
  36.2588804  13.5661341  23.3169586  31.5817323   7.8534570  25.7342837
  31.2115111   7.3005610  26.4223743  32.0776416   7.2492703  25.1817837
  39.4684686  10.3106193  24.1159610  39.9345139  11.1434185  24.0419913
  39.9192187   9.8451175  24.8204869  29.4106522  18.3132065  32.8297855
  30.1115981  18.9468548  32.9827249  28.9401637  18.6546796  32.0693494
  37.5360917  16.6550015  21.1145762  37.8120761  16.5406609  22.0239636
  36.6665416  16.2567499  21.0757935  37.4401349   2.6786780  28.1550511
  36.5264429   2.9091007  28.3232718  37.8694451   2.7625224  29.0064544
  37.2107808  10.8676672  30.6550406  36.5579258  11.1152580  30.0002858
  37.5888188  10.0540810  30.3212883  33.2595381  11.6096483  37.1416443
  32.5836018  11.5090613  37.8118818  34.0823015  11.4535697  37.6052440
  25.0074240  17.8468420  29.7628958  25.5927677  17.1012108  29.8956862
  24.8099078  18.1572377  30.6465622  19.5991894  10.4174020  28.4833401
  19.6375994   9.8837611  29.2770519  19.0932187   9.8909226  27.8644378
  26.9782657   5.2638561  31.9795943  27.0423983   6.1253391  31.5673341
  26.9149777   4.6512562  31.2468302  26.4534929   7.3361693  35.6268978
  27.0806968   6.9538770  36.2406502  25.5962848   7.1175895  35.9924670
  36.8529038  17.7424668  37.2322713  37.3968942  18.3554626  36.7377668
  36.2715883  18.3004247  37.7489726  23.2300472   9.1438122  21.5587332
  23.5253913   8.2348801  21.5054386  22.3288508   9.1225862  21.2368335
  26.7594719   7.2194119  27.5414881  26.0381305   7.8330086  27.4022354
  27.5487975   7.7551884  27.4631527  37.2021459  18.6654406  29.9917291
  36.2551795  18.5459758  29.9195618  37.5504232  17.7776904  30.0743552
  29.5621033   4.5548545  33.8155533  30.0855434   4.8010842  34.5781842
  29.3433366   5.3868580  33.3958670  24.9588314   6.8252220  21.6826658
  24.6301020   5.9449599  21.5001763  25.3127684   6.7699889  22.5703047
  28.0730137   7.1125190  22.0502135  28.4126209   7.6411111  21.3280744
  28.5202257   7.4505596  22.8260702  37.8102014  19.2835681  27.2786516
  38.7348562  19.0778543  27.1410967  37.6417318  19.0352082  28.1875857
  30.7673578   5.4962240  31.5005203  30.4270398   4.6970053  31.9025883
  30.0612584   5.7963951  30.9282036  31.4190049   2.5811553  29.9532526
  32.2416119   2.1072031  29.8311417  31.6628113   3.3602037  30.4531213
  30.0598284   5.6099811  20.2495428  30.7806646   5.9881064  19.7459145
  29.4363588   6.3288688  20.3530406  34.2029407   6.3144960  21.1853760
  34.4193021   7.1969598  20.8842588  33.7223474   5.9231174  20.4559402
  28.9428628   9.2730673  27.7624505  28.7973209   9.5870976  28.6548786
  28.4653832   9.8915574  27.2095404  30.8025011   6.2633221  27.8105394
  30.7886580   5.3674315  27.4737692  31.5197439   6.2703885  28.4443681
  32.6551142   6.6970562  29.8558522  32.3968920   7.6187632  29.8542852
  32.1236182   6.3000996  30.5458986  23.4174290  11.8136018  30.7012166
  22.8727758  12.5895826  30.8332440  24.2953640  12.1606822  30.5431288
  30.2061907   5.1447602  23.0792965  30.3277818   4.2164248  23.2783852
  29.9163949   5.1586288  22.1671280  33.0753097   2.8302512  26.2159684
  33.0974794   2.8941845  25.2611664  33.4921156   1.9907021  26.4100191
  43.4536722  12.5657772  24.2538907  43.8967868  11.8165097  23.8558030
  42.5763232  12.5567908  23.8712639  38.5872503  19.1188113  19.7345506
  39.2823408  19.7394806  19.9532820  38.9295653  18.2683464  20.0097883
  24.2040312  10.9405914  33.5942323  23.4622048  11.0888549  34.1806953
  23.8833056  11.2014180  32.7309072  40.4863926  16.5687819  21.2632836
  41.0115250  16.9075091  20.5382156  40.3986279  15.6334834  21.0795971
  32.1483975  20.4821892  33.3922713  32.4571101  20.2371039  34.2645413
  32.9459457  20.6868531  32.9041583  22.8505531  16.7457669  26.5841651
  22.0137439  16.3179844  26.4025652  22.8229176  16.9390113  27.5212442
  29.6902987   6.6579599  37.2882897  29.7391142   7.5341722  36.9060667
  30.2325501   6.1156992  36.7154540  40.1757832  17.2020722  36.5684034
  39.3853376  17.1844861  36.0288534  39.9391187  17.7409016  37.3233071
  40.2955707  14.0513189  33.8816763  40.3453712  13.8863196  34.8232286
  40.1869631  13.1840448  33.4914644  29.1791966  16.7301734  21.1708852
  29.3280086  17.4137199  20.5175524  29.9858409  16.7106824  21.6858307
  37.5859470  10.0344117  35.1976070  38.4869332   9.8950582  34.9060067
  37.6607444  10.1998572  36.1374247  31.9202275   7.4110971  34.0429256
  31.0505584   7.7044538  33.7711844  32.1561755   7.9951416  34.7636519
  41.7973904  16.4710130  34.1258784  41.5058712  16.8340111  34.9622245
  41.1846035  15.7577138  33.9472116  42.9969586  14.0363010  26.6461355
  43.8316478  14.4752814  26.8098915  43.1328715  13.5601663  25.8269600
  40.0461092  11.5942745  32.5938842  40.5215214  11.7870391  31.7857694
  39.1226658  11.6501931  32.3482226  26.9344599  12.7566912  22.1769921
  26.6890641  11.8529242  22.3750131  27.1040513  12.7584062  21.2349399
  34.6241309   3.6290588  31.5594676  35.1423253   4.3651615  31.2341165
  34.2696442   3.9354582  32.3941435  26.2040246   8.4895270  19.6756082
  25.5109491   8.5639625  19.0196118  25.9591998   7.7255613  20.1977599
  32.6787371  19.2249865  18.6420599  32.1061339  19.8440052  18.1891071
  33.2520165  19.7749227  19.1760521  38.7462761   8.4708505  30.8267148
  39.6980184   8.5706603  30.8479372  38.5766212   7.6786773  31.3365232
  36.7677141   5.5564088  31.0126549  36.1727073   5.8369101  30.3173038
  36.4826838   6.0457989  31.7843290  35.8984631  19.5087015  19.7729181
  36.8315304  19.4432577  19.9762057  35.8107844  20.3443282  19.3143714
  38.5272648  18.8252885  16.7333129  38.4486279  18.4912749  17.6268887
  39.3482315  19.3174653  16.7324601  41.2250839  11.6914625  29.9409448
  41.1927159  10.7530625  30.1269131  41.8351463  11.7698661  29.2075272
  33.0634170  10.5610678  15.9836652  34.0093275  10.4316886  16.0525070
  32.6848415   9.8225339  16.4606080  41.3745328   8.4825668  29.9867731
  40.8584376   7.6984125  29.7997660  42.2585276   8.1544385  30.1514250
  47.0427389  12.7530631  29.0815484  47.7730777  12.4915920  29.6423188
  46.4334334  12.0159353  29.1217552  45.1242686  10.8938494  29.6789936
  44.3975850  10.7594459  29.0706427  44.7089973  11.2015323  30.4846654
  32.9472863  14.6128424  37.4437309  33.8675872  14.7907023  37.6377355
  32.9122446  13.6684469  37.2917008  31.2477087   8.4860654  15.9191537
  30.3408543   8.1893767  15.9954250  31.5253068   8.1890472  15.0525823
  22.1655028   9.8067017  26.3690583  21.8457812   8.9532326  26.0764957
  21.6188456  10.0215596  27.1248551  25.9434935  12.5229458  30.0860090
  26.1620945  13.4546566  30.1048124  26.3560709  12.1637433  30.8714894
  32.8639153   3.0297544  22.0735778  32.0539881   2.6844629  22.4491024
  33.5523570   2.7205087  22.6623390  30.8162800   8.0962664  39.4762839
  30.7159527   9.0457021  39.4074930  30.5984342   7.7680903  38.6038909
  30.0175872   5.3447589  16.0603516  30.8795036   5.6702487  16.3199333
  30.2026216   4.5579085  15.5476582  22.0343288  13.4269929  28.3383705
  21.3406759  13.0123882  27.8253659  22.7816279  13.4690465  27.7417124
  38.1708508   4.2176116  23.2038739  37.5907177   4.8760920  22.8216791
  37.9044441   3.3953460  22.7926157  36.6212075   3.6181173  25.4060059
  37.1211853   3.7297708  24.5974378  37.2647683   3.3142226  26.0460868
  30.6794070  11.5259803  38.2927900  30.1961152  12.3260163  38.4991789
  30.7655009  11.5367748  37.3395344  23.9480030  13.3588183  26.2149720
  23.9250718  13.4575870  25.2631603  24.2580667  14.2053333  26.5366886
  26.6067408  15.4164338  30.3296334  27.5610661  15.3848280  30.2626266
  26.4079932  14.9554961  31.1446560  27.1966790  13.9865454  32.8967132
  28.0159679  14.4809532  32.9201969  27.4703598  13.0697422  32.8684699
  36.9533386   6.3776206  22.2595087  36.0659241   6.6625857  22.0415282
  37.3687375   6.2169969  21.4122364  40.3047922   6.4022727  25.9749427
  41.0808313   6.8919179  26.2474043  39.5796057   6.8280781  26.4321296
  42.7420481   7.1150346  27.0323367  43.3364972   6.8746082  26.3216675
  42.8147065   6.3957477  27.6596903  36.0976600  16.1420881  16.3543107
  36.8012450  16.3470883  16.9700763  35.3739248  16.7097643  16.6192191
  36.9274410  11.8930742  22.4745377  36.8709611  12.3499293  21.6353010
  37.4802752  11.1321427  22.2968220  40.7379216   7.6820474  23.2995497
  40.4816150   7.2817109  24.1303705  40.1132084   8.3964268  23.1745636
  45.0491554  10.4216547  25.8066788  44.4891112  10.4909736  26.5798350
  44.4435057  10.2457532  25.0866285  38.0063297  16.5803410  18.4041567
  38.8408901  16.1484608  18.2219042  37.8447640  16.4085424  19.3318462
  37.6609189  13.0835523  19.7697907  37.6057993  12.9179795  18.8286351
  37.0355245  13.7911556  19.9260096  22.4501704   8.3203588  33.5959329
  23.0960568   7.8102542  34.0846554  22.2418855   9.0572269  34.1702754
  34.9755096  15.3884435  39.0951469  35.8446256  15.5625087  38.7338104
  34.4961848  16.2078852  38.9727199  30.9705315   2.5843632  19.3483225
  30.9583985   3.5285472  19.5051496  31.8628737   2.4013778  19.0542686
  26.7899195   5.4671205  37.6934343  27.6530657   5.1108009  37.9037668
  26.2164606   5.1285099  38.3809747  46.6347572  27.0973061  28.4996744
  47.2725982  26.9779808  27.7960084  46.5168415  28.0453905  28.5584696
  43.4437279  27.0500489  28.4358269  43.1055790  26.9341554  27.5478804
  44.3127047  26.6491654  28.4159275  43.9257062  28.2035341  34.3944474
  43.9145702  27.8088139  33.5224978  44.0877701  27.4701413  34.9878246
  36.8488526  30.3987157  27.2639380  37.6409818  30.0577982  26.8485680
  37.0885176  30.5082132  28.1841534  44.8823653  32.5706933  19.7369625
  44.2311633  33.1561014  19.3503638  45.6768016  33.1013128  19.7964662
  38.8079280  29.6596070  20.1356759  39.5810156  29.1125057  19.9969635
  39.1604679  30.5240320  20.3471220  40.6464323  30.9872453  33.3423658
  40.3554189  31.8918083  33.2270325  41.2821307  31.0288980  34.0567728
  41.5720529  28.3649301  29.9325018  42.1684102  28.1405324  29.2181981
  41.6295501  27.6234047  30.5350466  41.1445558  25.8188736  17.7675209
  41.3971079  25.2970258  17.0058672  40.2070117  25.6554882  17.8701893
  46.1888841  24.8224515  25.5749952  46.9751930  24.4043938  25.2240369
  46.4527545  25.7270607  25.7431601  46.3598918  30.2597365  20.2738609
  45.7244751  30.3331992  20.9859514  46.0296324  30.8490964  19.5957688
  51.5897268  24.7599748  26.4782931  52.3222440  24.1898965  26.7120760
  50.8336624  24.3721348  26.9189436  40.8641847  27.7216842  19.9699584
  40.7478105  27.0461746  20.6380668  40.9744107  27.2349216  19.1531737
  43.2073388  27.1826990  23.6746273  42.8431595  26.6557611  24.3859195
  44.0640503  26.7925459  23.5012759  49.1122688  18.4721322  30.9377539
  48.7806013  19.3416733  30.7138754  48.5168302  18.1557606  31.6171570
  42.8478875  22.2116889  18.6707622  43.0153277  23.0797126  19.0378093
  42.6576044  22.3744171  17.7468911  45.6054208  30.6733868  30.3373452
  45.3054931  31.5758907  30.2289259  45.2605267  30.4066051  31.1894605
  49.0051352  23.1916408  28.0170889  48.0968229  23.1231817  27.7229650
  48.9538947  23.6688353  28.8452715  42.8268095  24.6674547  19.6554288
  42.7067721  25.1131598  20.4939769  42.1320684  25.0159864  19.0967827
  40.5874988  37.4378188  23.3044420  40.5099017  38.3886014  23.3832900
  39.9836631  37.0924061  23.9619346  43.0792217  24.6106054  35.9605787
  42.3025551  25.1699974  35.9508651  43.7182780  25.0962837  36.4820657
  50.8712998  21.3932847  29.7948763  50.2287378  21.6865380  29.1488558
  50.3667926  21.2785767  30.6001960  48.5253162  25.1396020  20.4834623
  49.4371018  25.3723407  20.3082320  48.0162809  25.7233064  19.9209701
  41.3338590  27.4191507  35.5223754  42.0753274  27.9576551  35.2458577
  40.6275575  28.0457796  35.6795305  46.8093929  29.5620648  34.1195915
  47.2177285  29.1203058  33.3750547  46.0871191  28.9873275  34.3730108
  43.1624999  24.4993255  31.4929472  44.0086194  24.9232668  31.6364121
  43.1023637  23.8426879  32.1868035  47.1322744  30.1221838  27.8748204
  46.5031606  30.2867552  27.1724272  46.7448406  30.5363448  28.6459168
  51.0111976  31.0576276  25.2292568  50.3263014  31.4375178  24.6789601
  51.0955825  31.6671603  25.9624515  46.3124445  22.1597623  33.1510646
  46.0685376  22.9139683  32.6144921  46.5884375  22.5382970  33.9857893
  48.2662907  28.7036235  31.8287911  48.4779803  29.3467995  31.1522292
  48.2192656  27.8698552  31.3609841  45.8689136  21.3154056  28.7324483
  45.0073615  21.6135309  29.0241221  45.8951571  21.5324455  27.8005516
  42.6850706  29.8596246  25.1398289  43.1489051  30.1383949  24.3502912
  42.4207504  28.9579691  24.9571380  39.5774787  29.4067728  28.0778052
  40.1476144  29.8354996  27.4395537  40.1682899  29.1250313  28.7762238
  41.6219592  25.9819399  21.9487854  42.3243635  26.4340442  22.4161781
  41.2900220  25.3403218  22.5767747  40.0699953  24.5731155  36.3239064
  39.4398614  25.2547436  36.5574460  39.9636041  24.4614237  35.3792202
  49.3808735  31.5808191  30.0010269  50.2026179  31.1788378  29.7192950
  49.3771138  31.4776425  30.9526384  43.1465339  31.1292234  32.1570979
  43.2109771  31.5912641  32.9929151  42.4376263  30.4989599  32.2853289
  42.8613356  32.7960341  22.0249959  42.7259031  33.6411877  22.4534807
  43.4023169  32.9979619  21.2615893  39.3480696  18.8751921  38.6864315
  38.9547642  18.3218120  39.3611959  40.1646836  19.1862500  39.0770832
  36.3142754  30.3135779  22.5977885  36.8267274  31.1079030  22.7483449
  36.9665467  29.6162070  22.5311486  38.1237639  33.4301536  24.6800638
  38.3004267  34.3519500  24.4921622  38.9194472  33.1159955  25.1095017
  42.2648657  20.2909800  36.2784571  43.0058370  20.8916954  36.1989034
  42.4966580  19.5487438  35.7202614  37.4089995  25.4766168  34.5562801
  37.2943510  24.5751425  34.8569900  36.5534513  25.7229864  34.2047617
  44.4881833  33.4183908  36.1550302  44.0445687  32.6320287  35.8371206
  45.1499046  33.6063058  35.4894192  39.2468954  34.9479710  30.6810980
  39.7976379  34.8196773  29.9087974  38.4080430  35.2474599  30.3305873
  46.5863071  33.6986708  34.1831703  46.5681546  34.5195589  33.6911972
  47.5082991  33.5740783  34.4081844  43.0436125  31.2130837  35.0255211
  43.5764462  30.4519126  34.7954519  42.5150206  30.9204489  35.7679366
  46.2105820  16.3190903  30.5548853  45.8670089  17.2092545  30.4787963
  46.5784783  16.1292561  29.6918438  46.1756103  26.3099514  19.0621288
  45.6602726  27.0804119  19.3009675  45.9033411  25.6364651  19.6854349
  43.7603214  21.1549215  24.1206526  42.9044810  20.7656066  23.9412165
  44.1730166  21.2341176  23.2606312  45.2902360  18.6895558  28.5198086
  44.7867156  18.6525694  27.7065891  45.5832967  19.5988301  28.5794743
  41.5345246  18.7734288  27.5264268  42.3998243  18.5777097  27.1670157
  41.6022755  18.5444640  28.4533625  51.1490377  29.0631869  20.9974461
  50.3719820  28.7243029  20.5529624  51.8281858  29.0684492  20.3229427
  45.9642406  24.1826607  20.8881069  45.6592541  24.4972756  21.7391212
  46.9172848  24.2608026  20.9308402  44.4088838  30.3416830  22.5374023
  43.8810199  29.6069589  22.2247261  43.9076340  31.1191506  22.2913992
  49.3881684  28.5365850  27.6541069  48.7305358  29.2265112  27.7421198
  50.1922083  28.9262282  27.9975056  48.1987143  26.8910223  25.7045011
  48.7119024  27.5240215  26.2066721  48.8488366  26.2911419  25.3388371
  39.4677152  23.0340957  18.9176520  38.6314465  23.3715644  19.2385795
  39.3281922  22.8989937  17.9803657  41.4430233  17.8777745  23.6255704
  40.7894645  17.5626762  23.0012319  41.4010707  17.2553485  24.3515527
  42.5541438  28.1597040  15.5408996  41.6468500  27.9286294  15.7400145
  43.0512470  27.3634659  15.7282978  45.4609517  36.8694547  18.4605682
  44.7871216  37.1726244  19.0690640  45.8475339  37.6723628  18.1111139
  44.6767973  24.3659679  27.9503352  43.7590535  24.5874626  27.7925040
  45.0928117  24.4405989  27.0915059  45.4603021  25.7651094  23.0806032
  46.2074840  26.2772491  22.7713154  45.7294611  25.4435147  23.9410426
  43.7329671  28.2609635  20.0632986  42.8240891  27.9768668  20.1605456
  43.7624755  28.6808714  19.2036293  48.9648939  31.8716224  23.8324154
  48.5111266  31.0307134  23.8889344  48.3342905  32.5077623  24.1698934
  47.9081858  22.8008211  25.0624821  47.1704615  22.2885597  25.3935064
  48.1608632  22.3608592  24.2508098  47.4081878  33.7092721  24.7673972
  47.7004852  34.2697778  24.0486338  47.9180499  34.0021282  25.5227131
  48.0093486  15.5784463  25.6566591  48.3152362  14.7181826  25.3692506
  48.7346090  16.1702083  25.4565584  42.2814565  25.8738256  26.1642782
  42.3363175  24.9212092  26.0885258  41.4705767  26.0297695  26.6484080
  43.4305759  29.8018379  17.4021065  42.9925189  29.0854238  16.9426702
  44.1716200  30.0294493  16.8406156  42.3715503  34.4873072  25.8567425
  42.3291682  34.7133919  24.9275957  43.2878202  34.2536447  26.0053226
  45.8181137  24.9557140  32.7548054  46.1730525  25.1828613  33.6142520
  46.4653268  25.2875517  32.1325310  51.5478874  28.0775576  23.4597383
  51.4096773  28.2677172  22.5318573  51.1915093  28.8394959  23.9165435
  39.7121000  22.0633671  29.5394395  40.3520379  21.9222430  28.8417359
  38.8798531  21.7768184  29.1632997  51.5748254  30.1452103  28.4708655
  52.0084760  30.0527392  29.3191709  52.2879834  30.1209603  27.8328671
  40.4881304  31.3636101  25.6529388  41.2821902  30.8686421  25.4511963
  39.7772996  30.8353964  25.2897093  45.3076148  33.7454197  30.0041756
  45.3613171  34.3145133  30.7719471  44.4390930  33.9156082  29.6395793
  38.1874542  23.4471753  31.4866207  38.8597595  23.2389115  30.8378856
  37.3604328  23.2493839  31.0471439  52.4363803  30.1875803  31.0041540
  52.6299693  31.0921614  31.2500815  52.3364421  29.7283222  31.8380125
  44.0900114  20.0733694  33.5031868  43.4428029  20.7723644  33.4096344
  44.8601129  20.5069838  33.8708116  47.4978912  30.3382546  36.5782421
  47.3464418  30.1093098  35.6612505  47.4883591  31.2953148  36.5913766
  44.2664248  27.9114459  31.5628687  45.1956308  28.0625618  31.3897655
  43.8455278  27.9998480  30.7077334  43.0652580  31.9365123  29.3327225
  42.9263666  31.5683908  30.2053163  42.2767176  32.4512763  29.1611183
  43.6600732  37.0374220  20.6752762  43.8352488  36.5662263  21.4898384
  42.9733520  37.6639986  20.9034022  44.6157795  31.3146726  26.7216063
  44.2807628  31.2747496  27.6173713  44.1161741  30.6491442  26.2486473
  38.5902039  26.7214356  32.2468644  38.4521837  25.9894595  32.8480183
  39.5006963  26.6323256  31.9652832  47.5516987  28.6602760  16.9953122
  46.9346157  27.9349588  16.8986175  47.0833475  29.4212121  16.6520197
  41.2184340  26.4334315  31.7352324  41.9283958  25.7927508  31.6938942
  41.1753648  26.6847210  32.6578504  49.2071118  33.3701669  34.6558903
  49.1483665  32.6860889  33.9889486  49.6090637  34.1120659  34.2039529
  39.9313274  23.4199533  33.5547963  39.3950631  22.9690272  34.2069559
  39.3429982  23.5545442  32.8118427  38.2261817  40.1863582  27.4492622
  38.4658415  40.8182107  28.1271640  37.3831014  39.8351623  27.7357981
  39.3415533  22.8788185  16.1174427  38.4644999  22.7576985  15.7536673
  39.8173286  22.0874263  15.8653315  49.2088526  31.3341253  32.8872882
  48.3215304  30.9967174  33.0099281  49.7787077  30.6024284  33.1241648
  42.7389679  35.9942705  29.8534126  42.6659851  36.7997676  30.3653430
  42.2967072  36.1934671  29.0282147  42.5279459  35.2314475  23.3636947
  41.7446981  35.7736155  23.4575172  43.2272204  35.7488455  23.7631188
  45.8376109  21.0409104  26.0071153  46.3344808  20.2879067  25.6872223
  45.0663090  21.0773421  25.4414362  53.6905866  26.7449470  27.6489444
  53.6795742  27.6274185  27.2783377  52.8223246  26.3921021  27.4543981
  45.1988363  35.8929539  32.0092284  45.9116335  36.5277004  31.9368186
  44.7078391  35.9893405  31.1932286  46.9205890  29.7980792  23.5809576
  45.9862168  29.9182254  23.4114280  47.0982558  28.8953258  23.3169586
  42.4211078  23.1826487  25.7342837  42.0508865  22.6297528  26.4223743
  42.9170170  22.5784621  25.1817837  50.3078441  25.6398111  24.1159610
  50.7738893  26.4726103  24.0419913  50.7585941  25.1743092  24.8204869
  40.2500276  33.6423982  32.8297855  40.9509736  34.2760465  32.9827249
  39.7795391  33.9838714  32.0693494  48.3754672  31.9841932  21.1145762
  48.6514516  31.8698527  22.0239636  47.5059171  31.5859417  21.0757935
  48.2795104  18.0078698  28.1550511  47.3658183  18.2382925  28.3232718
  48.7088205  18.0917142  29.0064544  48.0501562  26.1968590  30.6550406
  47.3973012  26.4444497  30.0002858  48.4281942  25.3832728  30.3212883
  45.0108736  36.2328283  24.7578576  45.1931131  35.4149939  25.2206328
  45.8341722  36.4495975  24.3203466  45.3450901  35.1596468  22.0193624
  45.8738668  34.6488923  21.4063786  45.6079121  34.8438998  22.8839157
  44.0989135  26.9388401  37.1416443  43.4229772  26.8382530  37.8118818
  44.9216769  26.7827615  37.6052440  35.8467994  33.1760337  29.7628958
  36.4321431  32.4304025  29.8956862  35.6492833  33.4864294  30.6465622
  38.7006649  36.2111585  24.7791400  38.0317025  36.6957712  24.2955440
  38.5619519  36.4580805  25.6934779  42.8411918  38.2455328  31.3774059
  43.3930226  38.4086950  32.1423144  43.1818111  38.8359766  30.7054083
  37.8176411  20.5930478  31.9795943  37.8817738  21.4545309  31.5673341
  37.7543531  19.9804480  31.2468302  37.2928684  22.6653611  35.6268978
  37.9200723  22.2830688  36.2406502  36.4356603  22.4467813  35.9924670
  47.6922792  33.0716586  37.2322713  48.2362696  33.6846544  36.7377668
  47.1109637  33.6296164  37.7489726  45.9780305  36.1937304  28.3637741
  45.8531445  35.3927044  27.8548686  46.6359396  36.6883497  27.8751711
  48.0415214  33.9946324  29.9917291  47.0945549  33.8751675  29.9195618
  48.3897987  33.1068822  30.0743552  40.4014787  19.8840463  33.8155533
  40.9249189  20.1302759  34.5781842  40.1827120  20.7160498  33.3958670
  45.0461647  33.7899040  26.1921643  44.8986609  32.8615748  26.3729213
  45.8715140  33.8119131  25.7078718  38.9123891  22.4417107  22.0502135
  39.2519964  22.9703029  21.3280744  39.3596012  22.7797513  22.8260702
  48.6495769  34.6127599  27.2786516  49.5742316  34.4070460  27.1410967
  48.4811072  34.3644000  28.1875857  41.6067332  20.8254158  31.5005203
  41.2664152  20.0261971  31.9025883  40.9006338  21.1255869  30.9282036
  42.2583804  17.9103470  29.9532526  43.0809873  17.4363949  29.8311417
  42.5021867  18.6893954  30.4531213  40.8992038  20.9391729  20.2495428
  41.6200401  21.3172982  19.7459145  40.2757343  21.6580606  20.3530406
  45.0423161  21.6436878  21.1853760  45.2586776  22.5261516  20.8842588
  44.5617228  21.2523091  20.4559402  41.6418766  21.5925139  27.8105394
  41.6280334  20.6966232  27.4737692  42.3591194  21.5995803  28.4443681
  43.4944896  22.0262479  29.8558522  43.2362674  22.9479550  29.8542852
  42.9629937  21.6292914  30.5458986  48.4391085  35.1313266  22.6348607
  48.6127963  34.5659689  21.8822460  48.9319976  35.9314161  22.4528097
  41.0455661  20.4739519  23.0792965  41.1671573  19.5456166  23.2783852
  40.7557704  20.4878205  22.1671280  43.9146852  18.1594430  26.2159684
  43.9368549  18.2233763  25.2611664  44.3314911  17.3198938  26.4100191
  49.4266258  34.4480031  19.7345506  50.1217162  35.0686723  19.9532820
  49.7689408  33.5975382  20.0097883  35.0434067  26.2697832  33.5942323
  34.3015803  26.4180467  34.1806953  34.7226811  26.5306097  32.7309072
  51.3257681  31.8979736  21.2632836  51.8509005  32.2367009  20.5382156
  51.2380033  30.9626752  21.0795971  42.9877729  35.8113810  33.3922713
  43.2964856  35.5662957  34.2645413  43.7853211  36.0160448  32.9041583
  43.0098341  37.9651720  25.6228090  42.5703332  37.4728098  26.3160946
  43.7606458  37.4224687  25.3820165  35.4890680  34.1563260  25.6252718
  36.3148700  33.8567032  25.2451361  35.1384732  33.3870883  26.0742506
  40.4572214  33.5089729  27.6950391  39.8352223  32.8460434  27.3952619
  41.1277080  33.5350861  27.0124039  40.5296741  21.9871517  37.2882897
  40.5784897  22.8633640  36.9060667  41.0719255  21.4448910  36.7154540
  51.0151587  32.5312640  36.5684034  50.2247130  32.5136779  36.0288534
  50.7784941  33.0700934  37.3233071  51.1349462  29.3805106  33.8816763
  51.1847467  29.2155114  34.8232286  51.0263385  28.5132365  33.4914644
  40.0185720  32.0593652  21.1708852  40.1673841  32.7429116  20.5175524
  40.8252164  32.0398742  21.6858307  48.4253224  25.3636034  35.1976070
  49.3263087  25.2242499  34.9060067  48.5001199  25.5290489  36.1374247
  42.7596029  22.7402889  34.0429256  41.8899339  23.0336455  33.7711844
  42.9955510  23.3243334  34.7636519  52.6367659  31.8002048  34.1258784
  52.3452467  32.1632028  34.9622245  52.0239790  31.0869056  33.9472116
  50.8854847  26.9234662  32.5938842  51.3608968  27.1162309  31.7857694
  49.9620412  26.9793848  32.3482226  45.4635063  18.9582506  31.5594676
  45.9817007  19.6943533  31.2341165  45.1090196  19.2646499  32.3941435
  45.7147657  15.3782789  27.0795573  45.9949411  14.7105978  27.7055999
  46.4998264  15.5711884  26.5670237  43.5181126  34.5541782  18.6420599
  42.9455093  35.1731970  18.1891071  44.0913920  35.1041144  19.1760521
  49.5856516  23.8000423  30.8267148  50.5373939  23.8998520  30.8479372
  49.4159966  23.0078691  31.3365232  47.6070895  20.8856006  31.0126549
  47.0120827  21.1661019  30.3173038  47.3220592  21.3749907  31.7843290
  46.7378386  34.8378933  19.7729181  47.6709059  34.7724494  19.9762057
  46.6501599  35.6735199  19.3143714  49.3666402  34.1544803  16.7333129
  49.2880034  33.8204667  17.6268887  50.1876069  34.6466571  16.7324601
  52.0644594  27.0206542  29.9409448  52.0320914  26.0822543  30.1269131
  52.6745217  27.0990579  29.2075272  43.9027924  25.8902595  15.9836652
  44.8487029  25.7608803  16.0525070  43.5242169  25.1517257  16.4606080
  52.2139082  23.8117586  29.9867731  51.6978131  23.0276042  29.7997660
  53.0979031  23.4836302  30.1514250  49.8749809  17.5558601  25.9463543
  49.6774630  17.2473689  26.8306875  50.4849515  18.2820240  26.0761473
  43.7866617  29.9420341  37.4437309  44.7069626  30.1198940  37.6377355
  43.7516200  28.9976387  37.2917008  42.0870842  23.8152572  15.9191537
  41.1802297  23.5185684  15.9954250  42.3646823  23.5182390  15.0525823
  36.7828690  27.8521376  30.0860090  37.0014699  28.7838484  30.1048124
  37.1954463  27.4929350  30.8714894  43.7032907  18.3589461  22.0735778
  42.8933636  18.0136546  22.4491024  44.3917324  18.0497005  22.6623390
  45.6323456  17.4367508  23.6960075  46.1854494  17.8562962  24.3550098
  45.8693542  16.5103256  23.7383031  41.6556555  23.4254582  39.4762839
  41.5553282  24.3748939  39.4074930  41.4378097  23.0972821  38.6038909
  40.8569626  20.6739507  16.0603516  41.7188790  20.9994405  16.3199333
  41.0419970  19.8871003  15.5476582  49.0102263  19.5468033  23.2038739
  48.4300932  20.2052837  22.8216791  48.7438195  18.7245378  22.7926157
  47.4605829  18.9473091  25.4060059  47.9605607  19.0589626  24.5974378
  48.1041437  18.6434144  26.0460868  41.5187825  26.8551721  38.2927900
  41.0354907  27.6552081  38.4991789  41.6048764  26.8659665  37.3395344
  37.4461162  30.7456255  30.3296334  38.4004416  30.7140198  30.2626266
  37.2473686  30.2846879  31.1446560  38.0360545  29.3157371  32.8967132
  38.8553434  29.8101450  32.9201969  38.3097352  28.3989340  32.8684699
  47.7927141  21.7068124  22.2595087  46.9052996  21.9917774  22.0415282
  48.2081130  21.5461887  21.4122364  51.1441677  21.7314645  25.9749427
  51.9202067  22.2211097  26.2474043  50.4189811  22.1572699  26.4321296
  53.5814236  22.4442264  27.0323367  54.1758726  22.2038000  26.3216675
  53.6540819  21.7249394  27.6596903  35.8011391  36.2875875  27.3466532
  35.6665859  35.5276276  26.7804530  35.3843453  37.0116775  26.8795321
  46.9370354  31.4712798  16.3543107  47.6406204  31.6762801  16.9700763
  46.2133003  32.0389560  16.6192191  47.7668164  27.2222660  22.4745377
  47.7103366  27.6791211  21.6353010  48.3196507  26.4613344  22.2968220
  51.5772970  23.0112391  23.2995497  51.3209905  22.6109027  24.1303705
  50.9525838  23.7256185  23.1745636  38.9580517  37.1845192  27.5584975
  38.8412901  38.1290624  27.4563665  38.1372963  36.8818753  27.9470774
  48.8457052  31.9095328  18.4041567  49.6802656  31.4776526  18.2219042
  48.6841395  31.7377341  19.3318462  48.5002944  28.4127441  19.7697907
  48.4451748  28.2471712  18.8286351  47.8748999  29.1203474  19.9260096
  33.2895459  23.6495505  33.5959329  33.9354322  23.1394459  34.0846554
  33.0812610  24.3864187  34.1702754  45.8148851  30.7176353  39.0951469
  46.6840011  30.8917005  38.7338104  45.3355602  31.5370770  38.9727199
  41.8099069  17.9135550  19.3483225  41.7977739  18.8577390  19.5051496
  42.7022491  17.7305695  19.0542686  39.9835031  37.8373454  30.7740903
  40.8862278  37.8697064  31.0907398  39.7572401  36.9073905  30.7887239
  41.7388633  36.5904440  27.4350982  40.7884264  36.5906302  27.3215354
  42.0421119  35.8437175  26.9187016  45.6251189  14.5078327  23.6029162
  44.8583585  13.9536813  23.7485844  46.0361894  14.5800195  24.4643313
  37.6292950  20.7963122  37.6934343  38.4924411  20.4399927  37.9037668
  37.0558360  20.4577017  38.3809747  50.1417849  44.2327883  24.4255160
  49.5782714  44.1417820  23.6571448  50.0270244  43.4127788  24.9057652
  47.6882281  45.7279075  27.2639380  48.4803573  45.3869899  26.8485680
  47.9278931  45.8374050  28.1841534  49.6473035  44.9887988  20.1356759
  50.4203911  44.4416975  19.9969635  49.9998433  45.8532237  20.3471220
  51.4858077  46.3164370  33.3423658  51.1947943  47.2210001  33.2270325
  52.1215061  46.3580898  34.0567728  52.4114284  43.6941219  29.9325018
  53.0077856  43.4697241  29.2181981  52.4689256  42.9525964  30.5350466
  51.9839312  41.1480654  17.7675209  52.2364833  40.6262175  17.0058672
  51.0463871  40.9846800  17.8701893  51.7035601  43.0508760  19.9699584
  51.5871859  42.3753663  20.6380668  51.8137861  42.5641134  19.1531737
  53.6872629  37.5408807  18.6707622  53.8547031  38.4089043  19.0378093
  53.4969798  37.7036089  17.7468911  49.8960444  42.4539583  26.3710156
  48.9710940  42.3215797  26.5787848  50.1444857  43.2333802  26.8680099
  53.6661850  39.9966464  19.6554288  53.5461475  40.4423515  20.4939769
  52.9714438  40.3451782  19.0967827  47.2569255  42.0972856  27.2053946
  47.3861636  42.3507335  28.1193357  46.5766706  42.6900564  26.8858601
  52.1732344  42.7483425  35.5223754  52.9147028  43.2868469  35.2458577
  51.4669330  43.3749714  35.6795305  53.5244460  45.1888164  25.1398289
  53.9882806  45.4675867  24.3502912  53.2601258  44.2871609  24.9571380
  50.4168541  44.7359646  28.0778052  50.9869898  45.1646914  27.4395537
  51.0076653  44.4542230  28.7762238  52.4613346  41.3111317  21.9487854
  53.1637390  41.7632360  22.4161781  52.1293975  40.6695135  22.5767747
  50.9093708  39.9023073  36.3239064  50.2792368  40.5839354  36.5574460
  50.8029796  39.7906155  35.3792202  46.2038680  39.5694869  27.2504988
  45.4137734  39.8252398  26.7745098  46.6949928  40.3843207  27.3557028
  48.1553426  39.9339448  24.2088464  47.3584589  40.0458143  24.7271960
  47.9279018  40.2726101  23.3429355  44.4876383  39.8225360  29.6819979
  44.7384422  40.7072370  29.9477555  45.0235932  39.6429961  28.9095070
  50.1874451  34.2043839  38.6864315  49.7941396  33.6510038  39.3611959
  51.0040591  34.5154417  39.0770832  47.1536508  45.6427697  22.5977885
  47.6661029  46.4370947  22.7483449  47.8059221  44.9453988  22.5311486
  48.9631393  48.7593453  24.6800638  49.1398021  49.6811418  24.4921622
  49.7588227  48.4451873  25.1095017  53.1042412  35.6201718  36.2784571
  53.8452125  36.2208871  36.1989034  53.3360334  34.8779356  35.7202614
  48.2483750  40.8058085  34.5562801  48.1337265  39.9043343  34.8569900
  47.3928267  41.0521782  34.2047617  45.1185425  43.9716351  23.3737455
  45.9560647  44.3813360  23.1571163  45.2963693  43.0315794  23.3437649
  52.3739001  34.1026206  27.5264268  53.2391998  33.9069015  27.1670157
  52.4416510  33.8736558  28.4533625  49.9801320  36.3328414  24.8980635
  50.5545072  36.1103595  24.1653828  50.5672302  36.4017108  25.6509236
  50.3070907  38.3632875  18.9176520  49.4708219  38.7007561  19.2385795
  50.1675677  38.2281855  17.9803657  52.2823988  33.2069663  23.6255704
  51.6288400  32.8918680  23.0012319  52.2404462  32.5845403  24.3515527
  53.3935192  43.4888958  15.5408996  52.4862254  43.2578211  15.7400145
  53.8906224  42.6926577  15.7282978  45.1411596  41.3107067  24.0448189
  44.9435996  40.7176427  23.3199255  44.5858260  41.0059277  24.7624127
  53.1208320  41.2030173  26.1642782  53.1756930  40.2504010  26.0885258
  52.3099522  41.3589612  26.6484080  51.0600680  39.8207233  23.9233161
  50.2468545  40.1201404  24.3298353  51.5559674  39.4262922  24.6407643
  50.5514755  37.3925589  29.5394395  51.1914134  37.2514348  28.8417359
  49.7192285  37.1060102  29.1632997  51.3275058  46.6928019  25.6529388
  52.1215657  46.1978339  25.4511963  50.6166751  46.1645882  25.2897093
  47.6357822  40.8371101  21.7289141  46.7055410  40.7755556  21.9459103
  47.7315294  40.3147053  20.9325782  47.5543371  37.3625914  24.3167382
  47.8150188  38.2771247  24.2076543  48.3760543  36.8950356  24.4663995
  49.0268296  38.7763671  31.4866207  49.6991350  38.5681033  30.8378856
  48.1998083  38.5785757  31.0471439  49.4295794  42.0506274  32.2468644
  49.2915592  41.3186512  32.8480183  50.3400717  41.9615174  31.9652832
  52.0578094  41.7626233  31.7352324  52.7677713  41.1219425  31.6938942
  52.0147402  42.0139128  32.6578504  50.7707028  38.7491451  33.5547963
  50.2344385  38.2982189  34.2069559  50.1823737  38.8837360  32.8118427
  50.1809287  38.2080102  16.1174427  49.3038754  38.0868903  15.7536673
  50.6567040  37.4166181  15.8653315  41.7011427  42.9957262  26.2115934
  42.3882467  42.6818992  25.6236949  41.5459556  43.8998627  25.9383185
  46.5046149  37.8847459  30.6400958  46.4204338  37.2773128  29.9051368
  45.6828856  38.3756477  30.6410454  53.2604832  38.5118405  25.7342837
  52.8902620  37.9589445  26.4223743  53.7563925  37.9076539  25.1817837
  46.6861749  48.5052255  29.7628958  47.2715186  47.7595943  29.8956862
  46.4886587  48.8156212  30.6465622  41.2779403  41.0757855  28.4833401
  41.3163503  40.5421446  29.2770519  40.7719696  40.5493061  27.8644378
  48.6570166  35.9222396  31.9795943  48.7211492  36.7837227  31.5673341
  48.5937286  35.3096398  31.2468302  48.1322438  37.9945528  35.6268978
  48.7594477  37.6122606  36.2406502  47.2750357  37.7759730  35.9924670
  44.9087981  39.8021958  21.5587332  45.2041422  38.8932636  21.5054386
  44.0076017  39.7809697  21.2368335  48.4382228  37.8777954  27.5414881
  47.7168814  38.4913922  27.4022354  49.2275484  38.4135719  27.4631527
  51.2408542  35.2132381  33.8155533  51.7642943  35.4594677  34.5781842
  51.0220875  36.0452415  33.3958670  46.6375823  37.4836055  21.6826658
  46.3088529  36.6033434  21.5001763  46.9915193  37.4283724  22.5703047
  49.7517646  37.7709025  22.0502135  50.0913718  38.2994946  21.3280744
  50.1989766  38.1089431  22.8260702  52.4461087  36.1546076  31.5005203
  52.1057907  35.3553889  31.9025883  51.7400093  36.4547787  30.9282036
  53.0977558  33.2395388  29.9532526  53.9203628  32.7655866  29.8311417
  53.3415622  34.0185872  30.4531213  51.7385793  36.2683647  20.2495428
  52.4594155  36.6464899  19.7459145  51.1151097  36.9872523  20.3530406
  50.6216137  39.9314509  27.7624505  50.4760718  40.2454812  28.6548786
  50.1441341  40.5499409  27.2095404  52.4812520  36.9217057  27.8105394
  52.4674089  36.0258150  27.4737692  53.1984948  36.9287720  28.4443681
  45.0961799  42.4719853  30.7012166  44.5515267  43.2479661  30.8332440
  45.9741149  42.8190658  30.5431288  51.8849416  35.8031437  23.0792965
  52.0065327  34.8748083  23.2783852  51.5951458  35.8170123  22.1671280
  45.8827821  41.5989749  33.5942323  45.1409557  41.7472385  34.1806953
  45.5620565  41.8598015  32.7309072  46.3284435  49.4855178  25.6252718
  47.1542455  49.1858950  25.2451361  45.9778487  48.7162801  26.0742506
  44.5293040  47.4041505  26.5841651  43.6924948  46.9763679  26.4025652
  44.5016685  47.5973948  27.5212442  51.3690496  37.3163434  37.2882897
  51.4178651  38.1925557  36.9060667  51.9113010  36.7740827  36.7154540
  50.8579475  47.3885570  21.1708852  51.0067595  48.0721034  20.5175524
  51.6645918  47.3690660  21.6858307  53.5989784  38.0694807  34.0429256
  52.7293093  38.3628373  33.7711844  53.8349264  38.6535252  34.7636519
  48.6132108  43.4150747  22.1769921  48.3678150  42.5113077  22.3750131
  48.7828022  43.4167898  21.2349399  47.8827755  39.1479105  19.6756082
  47.1897000  39.2223460  19.0196118  47.6379507  38.3839449  20.1977599
  52.9264596  39.1444489  15.9191537  52.0196052  38.8477602  15.9954250
  53.2040577  38.8474307  15.0525823  43.8442537  40.4650853  26.3690583
  43.5245321  39.6116161  26.0764957  43.2975965  40.6799431  27.1248551
  47.6222444  43.1813294  30.0860090  47.8408454  44.1130402  30.1048124
  48.0348218  42.8221268  30.8714894  52.4950309  38.7546499  39.4762839
  52.3947036  39.7040856  39.4074930  52.2771851  38.4264738  38.6038909
  51.6963381  36.0031425  16.0603516  52.5582545  36.3286323  16.3199333
  51.8813725  35.2162920  15.5476582  43.7130797  44.0853764  28.3383705
  43.0194268  43.6707717  27.8253659  44.4603788  44.1274301  27.7417124
  52.3581579  42.1843638  38.2927900  51.8748661  42.9843998  38.4991789
  52.4442518  42.1951583  37.3395344  45.6267539  44.0172018  26.2149720
  45.6038227  44.1159705  25.2631603  45.9368176  44.8637169  26.5366886
  48.2854917  46.0748173  30.3296334  49.2398170  46.0432115  30.2626266
  48.0867440  45.6138797  31.1446560  48.8754299  44.6449289  32.8967132
  49.6947188  45.1393368  32.9201969  49.1491107  43.7281257  32.8684699
  44.1289213  38.9787423  33.5959329  44.7748077  38.4686377  34.0846554
  43.9206364  39.7156105  34.1702754  52.6492824  33.2427468  19.3483225
  52.6371494  34.1869307  19.5051496  53.5416246  33.0597613  19.0542686
  48.4686704  36.1255040  37.6934343  49.3318166  35.7691845  37.9037668
  47.8952115  35.7868935  38.3809747  27.3868064   1.8633787  14.1737928
  27.6264662   2.4952312  14.8516947  26.5437260   1.5121827  14.4603288
  39.3024095   5.9098088  11.1500466  38.7388961   5.8188025  10.3816754
  39.1876491   5.0897993  11.6302959  36.8488527   7.4049280  13.9884687
  37.6409819   7.0640104  13.5730986  37.0885178   7.5144255  14.9086840
  38.8079281   6.6658193   6.8602066  39.5810157   6.1187180   6.7214941
  39.1604680   7.5302442   7.0716527  40.6464324   7.9934575  20.0668965
  40.3554190   8.8980206  19.9515631  41.2821308   8.0351103  20.7813035
  41.5720531   5.3711424  16.6570325  42.1684103   5.1467446  15.9427288
  41.6295502   4.6296169  17.2595772  45.6054209   7.6795991  17.0618759
  45.3054932   8.5821030  16.9534566  45.2605268   7.4128174  17.9139912
  39.0566690   4.1309788  13.0955463  38.1317187   3.9986002  13.3033155
  39.3051104   4.9104007  13.5925405  36.4175501   3.7743061  13.9299252
  36.5467883   4.0277540  14.8438664  35.7372953   4.3670769  13.6103907
  40.5874989  14.4440311  10.0289726  40.5099018  15.3948136  10.1078207
  39.9836632  14.0986184  10.6864653  41.3338591   4.4253630  22.2469060
  42.0753275   4.9638674  21.9703884  40.6275576   5.0519919  22.4040612
  46.8093930   6.5682770  20.8441222  47.2177287   6.1265181  20.0995854
  46.0871192   5.9935398  21.0975415  47.1322745   7.1283961  14.5993511
  46.5031608   7.2929675  13.8969578  46.7448407   7.5425571  15.3704475
  42.6850707   6.8658369  11.8643596  43.1489053   7.1446072  11.0748218
  42.4207505   5.9641814  11.6816686  39.5774788   6.4129851  14.8023359
  40.1476145   6.8417119  14.1640843  40.1682900   6.1312435  15.5007545
  49.3808737   8.5870313  16.7255575  50.2026180   8.1850501  16.4438257
  49.3771139   8.4838547  17.6771691  43.1465340   8.1354357  18.8816286
  43.2109773   8.5974764  19.7174458  42.4376264   7.5051721  19.0098596
  33.6482630   1.4995565  16.4065285  33.8990668   2.3842574  16.6722861
  34.1842178   1.3200166  15.6340377  42.8613358   9.8022464   8.7495266
  42.7259032  10.6474000   9.1780114  43.4023170  10.0041742   7.9861200
  36.3142755   7.3197902   9.3223191  36.8267276   8.1141152   9.4728756
  36.9665468   6.6224193   9.2556793  38.1237640  10.4363658  11.4045944
  38.3004268  11.3581623  11.2166928  38.9194473  10.1222078  11.8340324
  44.4881834  10.4246031  22.8795608  44.0445688   9.6382409  22.5616513
  45.1499048  10.6125181  22.2139499  39.2468955  11.9541832  17.4056287
  39.7976380  11.8258896  16.6333281  38.4080431  12.2536721  17.0551179
  46.5863072  10.7048830  20.9077009  46.5681547  11.5257712  20.4157279
  47.5082992  10.5802906  21.1327151  43.0436126   8.2192960  21.7500518
  43.5764463   7.4581248  21.5199826  42.5150207   7.9266612  22.4924672
  34.2791672   5.6486556  10.0982762  35.1166894   6.0583565   9.8816469
  34.4569940   4.7085999  10.0682956  44.4088839   7.3478952   9.2619330
  43.8810201   6.6131712   8.9492567  43.9076342   8.1253629   9.0159298
  47.4081879  10.7154844  11.4919279  47.7004854  11.2759901  10.7731644
  47.9180500  11.0083405  12.2472438  34.3017843   2.9877272  10.7693495
  34.1042243   2.3946632  10.0444562  33.7464507   2.6829482  11.4869434
  42.3715504  11.4935195  12.5812732  42.3291683  11.7196041  11.6521264
  43.2878203  11.2598569  12.7298533  40.4881305   8.3698224  12.3774695
  41.2821904   7.8748544  12.1757270  39.7772998   7.8416087  12.0142400
  45.3076150  10.7516319  16.7287062  45.3613172  11.3207256  17.4964778
  44.4390931  10.9218204  16.3641099  47.4978913   7.3444669  23.3027728
  47.3464419   7.1155220  22.3857811  47.4883593   8.3015270  23.3159073
  44.2664249   4.9176581  18.2873994  45.1956309   5.0687741  18.1142961
  43.8455279   5.0060602  17.4322641  43.0652581   8.9427246  16.0572532
  42.9263667   8.5746030  16.9298470  42.2767177   9.4574885  15.8856489
  43.6600733  14.0436342   7.3998068  43.8352489  13.5724386   8.2143691
  42.9733521  14.6702109   7.6279329  44.6157796   8.3208849  13.4461369
  44.2807629   8.2809619  14.3419019  44.1161742   7.6553564  12.9731780
  38.5902040   3.7276479  18.9713951  38.4521838   2.9956717  19.5725490
  39.5006964   3.6385379  18.6898138  49.2071120  10.3763791  21.3804209
  49.1483666   9.6923011  20.7134792  49.6090638  11.1182781  20.9284835
  38.2261818  17.1925705  14.1737928  38.4658417  17.8244229  14.8516947
  37.3831015  16.8413745  14.4603288  49.2088527   8.3403375  19.6118189
  48.3215306   8.0029297  19.7344588  49.7787078   7.6086406  19.8486955
  30.8617674   4.6727467  12.9361241  31.5488714   4.3589197  12.3482256
  30.7065803   5.5768832  12.6628492  42.7389680  13.0004828  16.5779432
  42.6659852  13.8059799  17.0898737  42.2967073  13.1996793  15.7527454
  42.5279460  12.2376598  10.0882254  41.7446982  12.7798278  10.1820478
  43.2272205  12.7550577  10.4876495  45.1988364  12.8991662  18.7337591
  45.9116336  13.5339126  18.6613492  44.7078393  12.9955528  17.9177593
  40.2500277  10.6486105  19.5543162  40.9509737  11.2822588  19.7072556
  39.7795392  10.9900837  18.7938801  45.0108737  13.2390406  11.4823882
  45.1931132  12.4212062  11.9451635  45.8341723  13.4558098  11.0448772
  45.3450903  12.1658591   8.7438931  45.8738669  11.6551045   8.1309093
  45.6079122  11.8501121   9.6084464  35.8467995  10.1822460  16.4874264
  36.4321432   9.4366148  16.6202169  35.6492834  10.4926417  17.3710928
  38.7006651  13.2173707  11.5036707  38.0317026  13.7019835  11.0200747
  38.5619520  13.4642928  12.4180085  30.4385650   2.7528060  15.2078708
  30.4769750   2.2191651  16.0015826  29.9325943   2.2263266  14.5889685
  42.8411919  15.2517451  18.1019365  43.3930227  15.4149072  18.8668450
  43.1818113  15.8421889  17.4299390  47.6922794  10.0778708  23.9568020
  48.2362698  10.6908667  23.4622974  47.1109638  10.6358287  24.4735033
  45.9780307  13.1999427  15.0883047  45.8531446  12.3989166  14.5793993
  46.6359398  13.6945620  14.5997017  48.0415215  11.0008447  16.7162597
  47.0945550  10.8813798  16.6440924  48.3897988  10.1130945  16.7988859
  45.0461648  10.7961163  12.9166950  44.8986611   9.8677870  13.0974520
  45.8715142  10.8181254  12.4324025  48.6495770  11.6189722  14.0031822
  49.5742318  11.4132583  13.8656274  48.4811073  11.3706123  14.9121164
  34.2568046   4.1490058  17.4257473  33.7121514   4.9249866  17.5577747
  35.1347396   4.4960863  17.2676594  35.0434068   3.2759954  20.3187630
  34.3015804   3.4242590  20.9052260  34.7226812   3.5368220  19.4554379
  42.9877731  12.8175933  20.1168020  43.2964857  12.5725079  20.9890719
  43.7853213  13.0222571  19.6286890  43.0098343  14.9713842  12.3473396
  42.5703333  14.4790221  13.0406253  43.7606460  14.4286810  12.1065471
  35.4890682  11.1625383  12.3498024  36.3148702  10.8629155  11.9696668
  35.1384734  10.3933006  12.7987813  40.4572215  10.5151851  14.4195698
  39.8352224   9.8522556  14.1197926  41.1277082  10.5412983  13.7369346
  33.6899287   9.0811710  13.3086958  32.8531195   8.6533884  13.1270959
  33.6622932   9.2744153  14.2457749  51.0151588   9.5374763  23.2929341
  50.2247132   9.5198901  22.7533840  50.7784943  10.0763056  24.0478378
  40.0185722   9.0655775   7.8954158  40.1673842   9.7491239   7.2420831
  40.8252165   9.0460865   8.4103614  52.6367660   8.8064170  20.8504091
  52.3452468   9.1694151  21.6867552  52.0239791   8.0931179  20.6717423
  37.7738355   5.0920952   8.9015227  37.5284397   4.1883282   9.0995437
  37.9434269   5.0938103   7.9594705  43.7866618   6.9482464  24.1682615
  44.7069628   7.1261063  24.3622662  43.7516201   6.0038509  24.0162315
  33.0048783   2.1421058  13.0935890  32.6851568   1.2886366  12.8010264
  32.4582211   2.3569636  13.8493857  36.7828691   4.8583499  16.8105396
  37.0014701   5.7900606  16.8293430  37.1954465   4.4991473  17.5960200
  32.8737043   5.7623969  15.0629011  32.1800515   5.3477922  14.5498966
  33.6210034   5.8044506  14.4662430  41.5187826   3.8613843  25.0173207
  41.0354908   4.6614203  25.2237096  41.6048765   3.8721788  24.0640651
  34.7873786   5.6942223  12.9395026  34.7644474   5.7929910  11.9876909
  35.0974422   6.5407374  13.2612193  37.4461164   7.7518378  17.0541641
  38.4004417   7.7202320  16.9871572  37.2473687   7.2909002  17.8691867
  38.0360546   6.3219494  19.6212438  38.8553435   6.8163573  19.6447276
  38.3097354   5.4051462  19.5930006  35.8011392  13.2937997  14.0711839
  35.6665860  12.5338398  13.5049837  35.3843455  14.0178897  13.6040628
  38.9580518  14.1907314  14.2830281  38.8412902  15.1352747  14.1808972
  38.1372965  13.8880876  14.6716081  45.8148852   7.7238475  25.8196776
  46.6840012   7.8979128  25.4583411  45.3355604   8.5432892  25.6972505
  39.9835032  14.8435576  17.4986210  40.8862279  14.8759187  17.8152705
  39.7572403  13.9136027  17.5132546  41.7388634  13.5966563  14.1596288
  40.7884265  13.5968424  14.0460661  42.0421121  12.8499297  13.6432323
  50.1417850  21.2390006  11.1500466  49.5782715  21.1479943  10.3816754
  50.0270245  20.4189910  11.6302959  47.6882282  22.7341197  13.9884687
  48.4803574  22.3932022  13.5730986  47.9278932  22.8436172  14.9086840
  49.6473036  21.9950111   6.8602066  50.4203912  21.4479098   6.7214941
  49.9998435  22.8594360   7.0716527  51.4858078  23.3226493  20.0668965
  51.1947944  24.2272124  19.9515631  52.1215063  23.3643021  20.7813035
  52.4114285  20.7003341  16.6570325  53.0077857  20.4759364  15.9427288
  52.4689257  19.9588087  17.2595772  49.8960445  19.4601705  13.0955463
  48.9710941  19.3277919  13.3033155  50.1444858  20.2395924  13.5925405
  47.2569256  19.1034979  13.9299252  47.3861637  19.3569458  14.8438664
  46.5766707  19.6962687  13.6103907  51.4268743  29.7732229  10.0289726
  51.3492773  30.7240054  10.1078207  50.8230387  29.4278101  10.6864653
  52.1732345  19.7545548  22.2469060  52.9147030  20.2930592  21.9703884
  51.4669331  20.3811836  22.4040612  53.5244462  22.1950287  11.8643596
  53.9882807  22.4737990  11.0748218  53.2601260  21.2933731  11.6816686
  50.4168543  21.7421768  14.8023359  50.9869900  22.1709037  14.1640843
  51.0076654  21.4604353  15.5007545  50.9093709  16.9085196  23.0484370
  50.2792370  17.5901477  23.2819767  50.8029797  16.7968277  22.1037508
  46.2038682  16.5756992  13.9750294  45.4137736  16.8314520  13.4990405
  46.6949929  17.3905330  14.0802335  48.1553427  16.9401571  10.9333771
  47.3584590  17.0520265  11.4517267  47.9279019  17.2788223  10.0674662
  53.9859095  23.4646274  18.8816286  54.0503527  23.9266681  19.7174458
  53.2770018  22.8343639  19.0098596  44.4876385  16.8287482  16.4065285
  44.7384423  17.7134492  16.6722861  45.0235933  16.6492084  15.6340377
  53.7007112  25.1314382   8.7495266  53.5652787  25.9765917   9.1780114
  54.2416925  25.3333659   7.9861200  50.1874452  11.2105962  25.4109621
  49.7941397  10.6572160  26.0857266  51.0040592  11.5216540  25.8016139
  47.1536510  22.6489820   9.3223191  47.6661030  23.4433070   9.4728756
  47.8059222  21.9516110   9.2556793  48.9631394  25.7655576  11.4045944
  49.1398023  26.6873541  11.2166928  49.7588228  25.4513995  11.8340324
  53.1042413  12.6263841  23.0029878  53.8452126  13.2270994  22.9234340
  53.3360336  11.8841478  22.4447920  48.2483751  17.8120208  21.2808108
  48.1337266  16.9105465  21.5815206  47.3928269  18.0583905  20.9292924
  50.0862710  27.2833750  17.4056287  50.6370135  27.1550813  16.6333281
  49.2474186  27.5828639  17.0551179  45.1185426  20.9778474  10.0982762
  45.9560648  21.3875482   9.8816469  45.2963694  20.0377916  10.0682956
  52.3739002  11.1088328  14.2509575  53.2391999  10.9131137  13.8915464
  52.4416511  10.8798680  15.1778931  49.9801321  13.3390536  11.6225941
  50.5545073  13.1165718  10.8899134  50.5672304  13.4079231  12.3754543
  45.1411597  18.3169189  10.7693495  44.9435997  17.7238550  10.0444562
  44.5858261  18.0121400  11.4869434  53.1208321  18.2092296  12.8888088
  53.1756931  17.2566132  12.8130565  52.3099523  18.3651735  13.3729387
  51.0600681  16.8269356  10.6478467  50.2468547  17.1263526  11.0543659
  51.5559675  16.4325044  11.3652949  53.2109259  26.8227113  12.5812732
  53.1685438  27.0487959  11.6521264  54.1271958  26.5890487  12.7298533
  50.5514756  14.3987711  16.2639702  51.1914135  14.2576470  15.5662665
  49.7192286  14.1122225  15.8878304  51.3275060  23.6990142  12.3774695
  52.1215658  23.2040462  12.1757270  50.6166752  23.1708005  12.0142400
  47.6357823  17.8433223   8.4534447  46.7055411  17.7817679   8.6704409
  47.7315295  17.3209176   7.6571089  47.5543372  14.3688036  11.0412689
  47.8150190  15.2833369  10.9321849  48.3760545  13.9012479  11.1909302
  49.0268298  15.7825793  18.2111513  49.6991351  15.5743155  17.5624162
  48.1998084  15.5847879  17.7716746  53.9046336  24.2719164  16.0572532
  53.7657421  23.9037948  16.9298470  53.1160932  24.7866803  15.8856489
  49.4295795  19.0568396  18.9713951  49.2915593  18.3248635  19.5725490
  50.3400718  18.9677296  18.6898138  52.0578096  18.7688356  18.4597630
  52.7677714  18.1281548  18.4184249  52.0147404  19.0201250  19.3823811
  50.7707029  15.7553573  20.2793270  50.2344386  15.3044312  20.9314866
  50.1823738  15.8899482  19.5363734  49.0655573  32.5217623  14.1737928
  49.3052171  33.1536147  14.8516947  48.2224769  32.1705663  14.4603288
  41.7011429  20.0019385  12.9361241  42.3882468  19.6881115  12.3482256
  41.5459557  20.9060749  12.6628492  46.5046151  14.8909581  17.3646264
  46.4204339  14.2835251  16.6296674  45.6828857  15.3818599  17.3655761
  53.5783435  28.3296745  16.5779432  53.5053606  29.1351717  17.0898737
  53.1360828  28.5288711  15.7527454  53.3673214  27.5668515  10.0882254
  52.5840736  28.1090195  10.1820478  54.0665960  28.0842495  10.4876495
  53.2604833  15.5180528  12.4588144  52.8902621  14.9651568  13.1469049
  53.7563926  14.9138661  11.9063144  51.0894032  25.9778023  19.5543162
  51.7903491  26.6114506  19.7072556  50.6189147  26.3192754  18.7938801
  46.6861750  25.5114378  16.4874264  47.2715187  24.7658066  16.6202169
  46.4886588  25.8218334  17.3710928  49.5400405  28.5465625  11.5036707
  48.8710780  29.0311753  11.0200747  49.4013275  28.7934846  12.4180085
  41.2779405  18.0819978  15.2078708  41.3163504  17.5483569  16.0015826
  40.7719698  17.5555183  14.5889685  53.6805674  30.5809369  18.1019365
  54.2323982  30.7440990  18.8668450  54.0211867  31.1713806  17.4299390
  48.6570167  12.9284518  18.7041250  48.7211493  13.7899349  18.2918648
  48.5937287  12.3158520  17.9713608  48.1322440  15.0007651  22.3514284
  48.7594478  14.6184728  22.9651809  47.2750358  14.7821853  22.7169977
  44.9087982  16.8084080   8.2832639  45.2041423  15.8994759   8.2299693
  44.0076018  16.7871820   7.9613641  48.4382229  14.8840077  14.2660188
  47.7168815  15.4976044  14.1267661  49.2275485  15.4197842  14.1876834
  51.2408543  12.2194503  20.5400839  51.7642945  12.4656800  21.3027149
  51.0220876  13.0514538  20.1203977  46.6375824  14.4898178   8.4071964
  46.3088530  13.6095557   8.2247070  46.9915195  14.4345846   9.2948353
  52.4461088  13.1608198  18.2250510  52.1057908  12.3616011  18.6271190
  51.7400094  13.4609909  17.6527343  53.0977560  10.2457511  16.6777833
  53.9203629   9.7717989  16.5556723  53.3415623  11.0247994  17.1776519
  50.6216138  16.9376631  14.4869812  50.4760719  17.2516934  15.3794093
  50.1441342  17.5561532  13.9340710  52.4812521  13.9279179  14.5350701
  52.4674090  13.0320273  14.1982999  53.1984949  13.9349843  15.1688987
  45.0961801  19.4781976  17.4257473  44.5515269  20.2541784  17.5577747
  45.9741150  19.8252780  17.2676594  45.8827822  18.6051872  20.3187630
  45.1409558  18.7534507  20.9052260  45.5620567  18.8660138  19.4554379
  46.3284436  26.4917301  12.3498024  47.1542456  26.1921073  11.9696668
  45.9778488  25.7224923  12.7987813  51.2965969  25.8443769  14.4195698
  50.6745979  25.1814474  14.1197926  51.9670836  25.8704901  13.7369346
  44.5293041  24.4103627  13.3086958  43.6924949  23.9825802  13.1270959
  44.5016687  24.6036071  14.2457749  51.3690497  14.3225557  24.0128204
  51.4178652  15.1987680  23.6305973  51.9113011  13.7802950  23.4399847
  50.8579476  24.3947692   7.8954158  51.0067597  25.0783157   7.2420831
  51.6645920  24.3752782   8.4103614  53.5989785  15.0756929  20.7674562
  52.7293095  15.3690495  20.4957151  53.8349266  15.6597374  21.4881826
  48.6132109  20.4212870   8.9015227  48.3678151  19.5175200   9.0995437
  48.7828024  20.4230020   7.9594705  43.8442538  17.4712975  13.0935890
  43.5245322  16.6178284  12.8010264  43.2975966  17.6861553  13.8493857
  47.6222445  20.1875416  16.8105396  47.8408455  21.1192524  16.8293430
  48.0348219  19.8283391  17.5960200  52.4950311  15.7608622  26.2008145
  52.3947038  16.7102979  26.1320236  52.2771853  15.4326861  25.3284215
  43.7130798  21.0915887  15.0629011  43.0194269  20.6769840  14.5498966
  44.4603789  21.1336423  14.4662430  52.3581581  19.1905761  25.0173207
  51.8748662  19.9906121  25.2237096  52.4442520  19.2013706  24.0640651
  45.6267540  21.0234141  12.9395026  45.6038228  21.1221828  11.9876909
  45.9368177  21.8699291  13.2612193  48.2854918  23.0810296  17.0541641
  49.2398172  23.0494238  16.9871572  48.0867442  22.6200919  17.8691867
  48.8754300  21.6511412  19.6212438  49.6947189  22.1455490  19.6447276
  49.1491108  20.7343380  19.5930006  46.6405147  28.6229915  14.0711839
  46.5059615  27.8630316  13.5049837  46.2237209  29.3470815  13.6040628
  49.7974273  29.5199232  14.2830281  49.6806657  30.4644665  14.1808972
  48.9766719  29.2172794  14.6716081  44.1289215  15.9849546  20.3204636
  44.7748078  15.4748499  20.8091861  43.9206366  16.7218227  20.8948061
  50.8228787  30.1727494  17.4986210  51.7256034  30.2051104  17.8152705
  50.5966157  29.2427945  17.5132546  52.5782389  28.9258481  14.1596288
  51.6278020  28.9260342  14.0460661  52.8814875  28.1791215  13.6432323
  48.4686706  13.1317163  24.4179650  49.3318167  12.7753967  24.6282974
  47.8952116  12.7931057  25.1055054  52.5405183  35.3311302  12.9361241
  53.2276223  35.0173032  12.3482256  52.3853312  36.2352667  12.6628492
  52.1173159  33.4111896  15.2078708  52.1557259  32.8775486  16.0015826
  51.6113452  32.8847101  14.5889685   3.2745955  20.2600981  39.6249930
   2.5209663  19.6908379  39.4693935   3.4093496  20.2263646  40.5720565
   3.6852370  20.4176591  42.3570175   4.4155758  20.1561879  42.9177878
   3.0759315  19.6805313  42.3972243   1.7667667  18.5584454  42.9544626
   1.0400830  18.4240419  42.3461117   1.3514954  18.8661282  43.7601344
   1.6916535  18.0862507  39.0821479   1.1316093  18.1555696  39.8553041
   1.0860038  17.9103491  38.3620975   3.2772553  34.7619021  41.7751434
   3.9150963  34.6425768  41.0714774   3.1593396  35.7099865  41.8339387
   1.5248634  40.2352893  33.0124315   0.8736613  40.8206973  32.6258329
   2.3192997  40.7659088  33.0719352   2.8313821  32.4870475  38.8504642
   3.6176911  32.0689898  38.4995059   3.0952526  33.3916567  39.0186291
   3.0023899  37.9243325  33.5493299   2.3669732  37.9977951  34.2614204
   2.6721305  38.5136924  32.8712379   8.2322249  32.4245708  39.7537621
   8.9647421  31.8544925  39.9875450   7.4761604  32.0367308  40.1944127
   5.7547669  26.1367282  44.2132230   5.4230994  27.0062693  43.9893445
   5.1593282  25.8203566  44.8926260   5.6476332  30.8562368  41.2925580
   4.7393210  30.7877776  40.9984341   5.5963928  31.3334313  42.1207405
   7.5137979  29.0578806  43.0703454   6.8712359  29.3511340  42.4243248
   7.0092907  28.9431727  43.8756650   5.1678142  32.8041980  33.7589313
   6.0795998  33.0369366  33.5837010   4.6587789  33.3879024  33.1964391
   3.7747725  37.7867798  41.1502894   3.1456587  37.9513512  40.4478962
   3.3873387  38.2009408  41.9213858   7.6536957  38.7222236  38.5047258
   6.9687995  39.1021137  37.9544291   7.7380806  39.3317563  39.2379206
   2.9549425  29.8243583  46.4265336   2.7110357  30.5785643  45.8899612
   3.2309356  30.2028930  47.2612583   4.9087888  36.3682195  45.1042602
   5.1204783  37.0113955  44.4276983   4.8617636  35.5344512  44.6364532
   2.5114117  28.9800016  42.0079174   1.6498596  29.2781269  42.2995911
   2.5376552  29.1970415  41.0760206   6.0233716  39.2454150  43.2764959
   6.8451160  38.8434338  42.9947641   6.0196119  39.1422385  44.2281075
  14.1139709  35.5892899  39.6249930  13.3603418  35.0200297  39.4693935
  14.2487250  35.5555563  40.5720565   2.8530801  23.9836863  43.8303543
   2.5095070  24.8738505  43.7542654   3.2209763  23.7938521  42.9673128
   2.8181084  33.9745474  32.3375978   2.3027707  34.7450079  32.5764366
   2.5458392  33.3010610  32.9609040   1.9327341  26.3541518  41.7952776
   1.4292137  26.3171653  40.9820582   2.2257948  27.2634261  41.8549433
   7.7915358  36.7277829  34.2729152   7.0144800  36.3888988  33.8284314
   8.4706839  36.7330452  33.5984117   2.6067387  31.8472566  34.1635759
   2.3017522  32.1618715  35.0145903   3.5597829  31.9253986  34.2063092
   6.0306665  36.2011810  40.9295760   5.3730339  36.8911071  41.0175888
   6.8347064  36.5908242  41.2729746   4.8412123  34.5556183  38.9799701
   5.3544005  35.1886175  39.4821411   5.4913347  33.9557378  38.6143062
   2.1034498  44.5340507  31.7360373   1.4296196  44.8372204  32.3445330
   2.4900320  45.3369587  31.3865830   2.1028002  33.4297054  36.3560722
   2.8499821  33.9418451  36.0467844   2.3719592  33.1081107  37.2165116
   5.6073920  39.5362184  37.1078844   5.1536247  38.6953094  37.1644035
   4.9767886  40.1723583  37.4453624   4.5506839  30.4654170  38.3379512
   3.8129596  29.9531556  38.6689754   4.8033613  30.0254552  37.5262788
   4.0506859  41.3738681  38.0428662   4.3429833  41.9343738  37.3241028
   4.5605479  41.6667242  38.7981821   4.6518466  23.2430422  38.9321281
   4.9577343  22.3827786  38.6447196   5.3771071  23.8348042  38.7320275
   2.4606118  32.6203100  46.0302745   2.8155506  32.8474573  46.8897210
   3.1078249  32.9521476  45.4080000   8.1903855  35.7421535  36.7352074
   8.0521753  35.9323131  35.8073263   7.8340074  36.5040918  37.1920125
   8.2173234  37.8098062  41.7463345   8.6509741  37.7173352  42.5946399
   8.9304815  37.7855563  41.1083361   9.0788784  37.8521763  44.2796231
   9.2724674  38.7567574  44.5255506   8.9789402  37.3929182  45.1134816
   1.2582776  38.9792686  39.9970753   0.9232609  38.9393456  40.8928403
   0.7586722  38.3137402  39.5241163   4.1941968  36.3248720  30.2707813
   3.5771138  35.5995548  30.1740865   3.7258456  37.0858080  29.9274887
   2.4801090  28.7055064  39.2825843   2.9769789  27.9525026  38.9626913
   1.7088071  28.7419381  38.7169052  10.3330847  34.4095430  40.9244134
  10.3220723  35.2920145  40.5538068   9.4648226  34.0566981  40.7298671
   3.5630870  37.4626751  36.8564266   2.6287149  37.5828214  36.6868971
   3.7407539  36.5599218  36.5924276   6.9503422  33.3044071  37.3914300
   7.4163874  34.1372062  37.3174603   7.4010922  32.8389052  38.0959559
   5.0179653  39.6487892  34.3900452   5.2939497  39.5344487  35.2994327
   4.1484152  39.2505377  34.3512626   4.9220084  25.6724658  41.4305202
   4.0083164  25.9028884  41.5987409   5.3513186  25.7563102  42.2819234
   4.6926543  33.8614550  43.9305096   4.0397993  34.1090457  43.2757549
   5.0706923  33.0478688  43.5967573   1.6533717  43.8974243  38.0333266
   1.8356111  43.0795899  38.4961018   2.4766703  44.1141935  37.5958156
   1.9875882  42.8242428  35.2948315   2.5163649  42.3134883  34.6818477
   2.2504102  42.5084958  36.1593848   4.6840194  41.6592284  43.2671981
   3.7370530  41.5397635  43.1950308   5.0322968  40.7714782  43.3498243
   1.6886628  41.4545000  39.4676333   1.5411590  40.5261707  39.6483903
   2.5140121  41.4765091  38.9833409   5.2920750  42.2773559  40.5541206
   6.2167297  42.0716420  40.4165657   5.1236053  42.0289960  41.4630548
   1.6848142  29.3082838  34.4608451   1.9011756  30.1907475  34.1597279
   1.2042209  28.9169051  33.7314093   5.0816066  42.7959226  35.9103298
   5.2552943  42.2305649  35.1577150   5.5744957  43.5960121  35.7282788
  10.9355457  35.5595649  37.5293597  11.3786603  34.8102974  37.1312721
  10.0581967  35.5505785  37.1467329   6.0691238  42.1125991  33.0100196
   6.7642143  42.7332683  33.2287510   6.4114388  41.2621342  33.2852574
   7.9682661  39.5625696  34.5387527   8.4933986  39.9012969  33.8136847
   7.8805014  38.6272711  34.3550661   7.7774443  37.0451066  47.1571453
   7.8272447  36.8801074  48.0986976   7.6688366  36.1778325  46.7669334
   9.2792639  39.4648008  47.4013475   8.9877448  39.8277988  48.2376936
   8.6664771  38.7515016  47.2226807  10.4788322  37.0300887  39.9216045
  11.3135213  37.4690691  40.0853605  10.6147450  36.5539541  39.1024291
   7.5279828  34.5880622  45.8693533   8.0033949  34.7808269  45.0612384
   6.6045393  34.6439808  45.6236916   2.1060044  26.6228466  44.8349367
   2.6241988  27.3589493  44.5095855   1.7515177  26.9292459  45.6696126
   2.3572638  23.0428748  40.3550263   2.6374392  22.3751937  40.9810690
   3.1423245  23.2357844  39.8424927   6.2281497  31.4646382  44.1021838
   7.1798920  31.5644480  44.1234062   6.0584947  30.6724651  44.6119923
   4.2495876  28.5501966  44.2881239   3.6545808  28.8306978  43.5927728
   3.9645573  29.0395866  45.0597980   3.3803367  42.5024892  33.0483872
   4.3134040  42.4370454  33.2516747   3.2926579  43.3381159  32.5898404
   6.0091383  41.8190763  30.0087819   5.9305015  41.4850626  30.9023577
   6.8301050  42.3112531  30.0079292   8.7069574  34.6852502  43.2164138
   8.6745895  33.7468503  43.4023822   9.3170198  34.7636539  42.4829963
   8.8564063  31.4763545  43.2622421   8.3403112  30.6922002  43.0752350
   9.7404011  31.1482262  43.4268941   6.5174790  25.2204561  39.2218234
   6.3199611  24.9119649  40.1061566   7.1274495  25.9466200  39.3516164
  14.5246124  35.7468509  42.3570175  15.2549513  35.4853797  42.9177878
  13.9153070  35.0097231  42.3972243  12.6061421  33.8876371  42.9544626
  11.8794585  33.7532336  42.3461117  12.1908708  34.1953200  43.7601344
   2.2748436  25.1013468  36.9714765   2.8279475  25.5208921  37.6304788
   2.5118523  24.1749216  37.0137721   5.6527244  27.2113993  36.4793429
   5.0725913  27.8698797  36.0971482   5.3863176  26.3891338  36.0680847
   4.1030810  26.6119051  38.6814750   4.6030588  26.7235585  37.8729069
   4.7466418  26.3080104  39.3215558   4.4352122  29.3714083  35.5349778
   3.5477977  29.6563734  35.3169972   4.8506111  29.2107847  34.6877055
   7.7866658  29.3960604  39.2504117   8.5627048  29.8857057  39.5228734
   7.0614792  29.8218659  39.7075986  10.2239216  30.1088224  40.3078057
  10.8183707  29.8683960  39.5971366  10.2965800  29.3895354  40.9351594
   3.5795335  39.1358758  29.6297798   4.2831185  39.3408761  30.2455453
   2.8557984  39.7035520  29.8946881   4.4093145  34.8868619  35.7500068
   4.3528347  35.3437171  34.9107700   4.9621488  34.1259304  35.5722911
   8.2197951  30.6758351  36.5750187   7.9634885  30.2754987  37.4058395
   7.5950819  31.3902145  36.4500326  12.5310289  33.4154424  39.0821479
  11.9709847  33.4847614  39.8553041  11.9253792  33.2395409  38.3620975
   5.4882032  39.5741287  31.6796258   6.3227636  39.1422486  31.4973732
   5.3266375  39.4023301  32.6073152   5.1427925  36.0773401  33.0452597
   5.0876728  35.9117672  32.1041041   4.5173980  36.7849434  33.2014787
   2.2676170  22.1724286  36.8783852   1.5008565  21.6182773  37.0240535
   2.6786874  22.2446155  37.7398004   8.6264293  48.8126614  31.0429899
   8.8789814  48.2908135  30.2813362   7.6888852  48.6492759  31.1456583
  13.6707576  47.8162392  38.8504642  14.4570665  47.3981815  38.4995059
  13.9346280  48.7208484  39.0186291  19.0716003  47.7537625  39.7537621
  19.8041175  47.1836842  39.9875450  18.3155359  47.3659226  40.1944127
  16.5941423  41.4659200  44.2132230  16.2624748  42.3354611  43.9893445
  15.9987037  41.1495484  44.8926260  10.3297610  45.2054767  31.9462312
  10.4972012  46.0735003  32.3132783  10.1394779  45.3682048  31.0223601
  16.4870087  46.1854286  41.2925580  15.5786964  46.1169694  40.9984341
  16.4357683  46.6626231  42.1207405  10.3086831  47.6612424  32.9308979
  10.1886456  48.1069475  33.7694459   9.6139419  48.0097742  32.3722517
  18.3531733  44.3870724  43.0703454  17.7106113  44.6803257  42.4243248
  17.8486662  44.2723644  43.8756650  16.0071897  48.1333897  33.7589313
  16.9189753  48.3661284  33.5837010  15.4981544  48.7170942  33.1964391
  10.6443735  47.4931132  44.7684162  11.4904930  47.9170545  44.9118811
  10.5842372  46.8364756  45.4622725  13.7943180  45.1535500  46.4265336
  13.5504112  45.9077561  45.8899612  14.0703110  45.5320848  47.2612583
  13.3507872  44.3091933  42.0079174  12.4892351  44.6073187  42.2995911
  13.3770306  44.5262332  41.0760206   9.1038327  48.9757276  35.2242544
   9.8062370  49.4278320  35.6916471   8.7718956  48.3341095  35.8522438
  24.9533464  50.9184817  39.6249930  24.1997172  50.3492215  39.4693935
  25.0881005  50.8847481  40.5720565  13.6924555  39.3128781  43.8303543
  13.3488825  40.2030422  43.7542654  14.0603518  39.1230438  42.9673128
  13.6574838  49.3037392  32.3375978  13.1421461  50.0741996  32.5764366
  13.3852146  48.6302528  32.9609040  11.2421949  44.1487093  37.3961217
  10.3863545  43.7593943  37.2166855  11.6548901  44.2279053  36.5361002
  12.7721096  41.6833436  41.7952776  12.2685891  41.6463571  40.9820582
  13.0651703  42.5926179  41.8549433   9.0163982  41.7672166  40.8018958
   9.8816978  41.5714974  40.4424848   9.0841490  41.5382517  41.7288315
  18.6309112  52.0569746  34.2729152  17.8538555  51.7180906  33.8284314
  19.3100593  52.0622370  33.5984117  13.4461141  47.1764484  34.1635759
  13.1411277  47.4910633  35.0145903  14.3991583  47.2545904  34.2063092
   6.6226301  43.9974374  38.1735325   7.1970053  43.7749555  37.4408518
   7.2097283  44.0663068  38.9263926  15.6805878  49.8848100  38.9799701
  16.1937760  50.5178092  39.4821411  16.3307102  49.2849296  38.6143062
   6.9495888  46.0278835  32.1931210   6.1133200  46.3653521  32.5140485
   6.8100657  45.8927814  31.2558347   8.9248968  40.8715622  36.9010394
   8.2713381  40.5564640  36.2767009   8.8829442  40.2491363  37.6270217
  12.1586709  47.3597556  41.2258042  11.2409270  47.5812503  41.0679730
  12.5746852  47.4343866  40.3669749  12.9421756  48.7588972  36.3560722
  13.6893575  49.2710369  36.0467844  13.2113346  48.4373024  37.2165116
  15.3900594  45.7946088  38.3379512  14.6523350  45.2823474  38.6689754
  15.6427367  45.3546470  37.5262788  15.4912221  38.5722340  38.9321281
  15.7971098  37.7119703  38.6447196  16.2164826  39.1639960  38.7320275
   9.7633301  48.8676133  39.4397472   9.8181910  47.9149969  39.3639949
   8.9524503  49.0235572  39.9238770   7.7025661  47.4853193  37.1987851
   6.8893526  47.7847363  37.6053043   8.1984655  47.0908882  37.9162333
  13.2999872  47.9495017  46.0302745  13.6549260  48.1766490  46.8897210
  13.9472004  48.2813394  45.4080000  19.0297609  51.0713453  36.7352074
  18.8915508  51.2615049  35.8073263  18.6733828  51.8332836  37.1920125
   7.1939735  45.0571548  42.8149086   7.8339115  44.9160307  42.1172049
   6.3617266  44.7706062  42.4387688   4.1968352  45.0271873  37.5922073
   4.4575169  45.9417206  37.4831233   5.0185524  44.5596316  37.7418685
  11.5718849  43.0671571  46.7786558  10.9246764  43.7661521  46.6851034
  12.3419865  43.5007715  47.1462806   6.8234268  45.8726062  29.3929117
   5.9463734  45.7514863  29.0291364   7.2992021  45.0812140  29.1408006
  13.3194844  44.0346982  39.2825843  13.8163544  43.2816944  38.9626913
  12.5481826  44.0711298  38.7169052  21.1724602  49.7387347  40.9244134
  21.1614478  50.6212063  40.5538068  20.3041981  49.3858898  40.7298671
   9.9029813  46.1764365  39.0097528   9.5327600  45.6235405  39.6978433
  10.3988905  45.5722498  38.4572528  17.7897176  48.6335988  37.3914300
  18.2557628  49.4663980  37.3174603  18.2404677  48.1680970  38.0959559
  15.7613839  41.0016575  41.4305202  14.8476919  41.2320802  41.5987409
  16.1906940  41.0855019  42.2819234  15.5320297  49.1906467  43.9305096
  14.8791748  49.4382375  43.2757549  15.9100677  48.3770605  43.5967573
   5.0807209  45.5423914  40.8169571   4.3593795  46.1559882  40.6777045
   5.8700465  46.0781679  40.7386217   3.2800803  45.1482015  34.9581348
   2.9513510  44.2679394  34.7756454   3.6340174  45.0929684  35.8457737
   6.3942627  45.4354985  35.3256826   6.7338699  45.9640906  34.6035434
   6.8414747  45.7735391  36.1015392   9.0886067  43.8192035  44.7759894
   8.7482888  43.0199848  45.1780573   8.3825074  44.1193746  44.2036727
   9.7402539  40.9041348  43.2287217  10.5628609  40.4301826  43.1066107
   9.9840603  41.6831832  43.7285903   8.3810774  43.9329606  33.5250118
   9.1019136  44.3110859  33.0213835   7.7576078  44.6518483  33.6285096
  12.5241897  44.6374755  34.4608451  12.7405511  45.5199393  34.1597279
  12.0435964  44.2460969  33.7314093   7.2641118  47.5960468  41.0379195
   7.1185699  47.9100772  41.9303477   6.7866322  48.2145369  40.4850094
   9.1237501  44.5863016  41.0860085   9.1099070  43.6904110  40.7492383
   9.8409929  44.5933680  41.7198371  10.9763632  45.0200357  43.1313212
  10.7181409  45.9417427  43.1297543  10.4448672  44.6230791  43.8213676
   8.5274397  43.4677397  36.3547655   8.6490308  42.5394043  36.5538542
   8.2376439  43.4816083  35.4425970  11.3965587  41.1532307  39.4914375
  11.4187284  41.2171640  38.5366354  11.8133646  40.3136816  39.6854881
  21.7749211  50.8887567  37.5293597  22.2180358  50.1394892  37.1312721
  20.8975722  50.8797703  37.1467329  18.6168197  52.3742984  47.1571453
  18.6666202  52.2092991  48.0986976  18.5082120  51.5070243  46.7669334
  21.3182076  52.3592805  39.9216045  22.1528968  52.7982609  40.0853605
  21.4541205  51.8831458  39.1024291  18.3673582  49.9172540  45.8693533
  18.8427704  50.1100186  45.0612384  17.4439147  49.9731726  45.6236916
  12.9453799  41.9520383  44.8349367  13.4635742  42.6881410  44.5095855
  12.5908931  42.2584377  45.6696126   4.5252736  46.8125065  32.9510772
   3.8321981  46.8869420  32.2950808   4.2804488  46.0485408  33.4732289
  13.1966393  38.3720666  40.3550263  13.4768147  37.7043855  40.9810690
  13.9817000  38.5649762  39.8424927  17.0675251  46.7938300  44.1021838
  18.0192674  46.8936398  44.1234062  16.8978702  46.0016569  44.6119923
  15.0889631  43.8793883  44.2881239  14.4939563  44.1598896  43.5927728
  14.8039327  44.3687784  45.0597980  19.5463329  50.0144420  43.2164138
  19.5139649  49.0760420  43.4023822  20.1563953  50.0928456  42.4829963
  11.3846660  48.8840473  29.2591342  12.3305764  48.7546681  29.3279760
  11.0060905  48.1455135  29.7360770  19.6957817  46.8055463  43.2622421
  19.1796866  46.0213920  43.0752350  20.5797766  46.4774180  43.4268941
  17.3568544  40.5496479  39.2218234  17.1593365  40.2411567  40.1061566
  17.9668250  41.2758118  39.3516164  25.3639879  51.0760427  42.3570175
  26.0943267  50.8145715  42.9177878  24.7546824  50.3389148  42.3972243
  23.4455176  49.2168289  42.9544626  22.7188339  49.0824254  42.3461117
  23.0302463  49.5245118  43.7601344   9.5689577  46.8090449  29.1946227
   8.6621032  46.5123562  29.2708941   9.8465558  46.5120267  28.3280513
  11.1851643  41.3527339  35.3490468  10.3752371  41.0074424  35.7245715
  11.8736060  41.0434882  35.9378080  13.1142191  40.4305386  36.9714765
  13.6673230  40.8500839  37.6304788  13.3512277  39.5041134  37.0137721
   8.3388362  43.6677384  29.3358206   9.2007526  43.9932283  29.5954024
   8.5238706  42.8808880  28.8231272  16.4920998  42.5405911  36.4793429
  15.9119667  43.1990715  36.0971482  16.2256931  41.7183255  36.0680847
  14.9424564  41.9410968  38.6814750  15.4424343  42.0527503  37.8729069
  15.5860172  41.6372021  39.3215558  15.2745876  44.7006001  35.5349778
  14.3871731  44.9855652  35.3169972  15.6899865  44.5399764  34.6877055
  18.6260412  44.7252522  39.2504117  19.4020802  45.2148975  39.5228734
  17.9008546  45.1510576  39.7075986  21.0632971  45.4380141  40.3078057
  21.6577462  45.1975877  39.5971366  21.1359554  44.7187272  40.9351594
  15.2486900  50.2160537  35.7500068  15.1922101  50.6729088  34.9107700
  15.8015242  49.4551222  35.5722911  19.0591706  46.0050269  36.5750187
  18.8028640  45.6046905  37.4058395  18.4344574  46.7194063  36.4500326
  23.3704044  48.7446342  39.0821479  22.8103602  48.8139531  39.8553041
  22.7647547  48.5687327  38.3620975   9.2917805  40.9073427  32.6237915
   9.2796474  41.8515267  32.7806186  10.1841226  40.7243573  32.3297377
  13.1069924  37.5016204  36.8783852  12.3402320  36.9474691  37.0240535
  13.5180629  37.5738073  37.7398004  26.3305975  53.9014258  38.9321281
  26.6364852  53.0411621  38.6447196  27.0558580  54.4931878  38.7320275
  24.0360147  53.7012584  40.3550263  24.3161901  53.0335773  40.9810690
  24.8210754  53.8941679  39.8424927  23.9463678  52.8308122  36.8783852
  23.1796074  52.2766608  37.0240535  24.3574383  52.9029990  37.7398004
   3.2772554  11.7681143  28.4996741   3.9150964  11.6487891  27.7960081
   3.1593397  12.7161987  28.5584693   1.5248635  17.2415016  19.7369622
   0.8736615  17.8269096  19.3503635   2.3192998  17.7721210  19.7964659
   2.8313823   9.4932597  25.5749949   3.6176912   9.0752020  25.2240366
   3.0952527  10.3978689  25.7431597   3.0023900  14.9305447  20.2738606
   2.3669733  15.0040074  20.9859511   2.6721307  15.5199046  19.5957685
   8.2322250   9.4307830  26.4782928   8.9647422   8.8607047  26.7120757
   7.4761606   9.0429431  26.9189433   2.2479190  15.3441950  30.3373449
   1.9479913  16.2466989  30.2289256   1.9030249  15.0774134  31.1894602
   5.6476334   7.8624491  28.0170886   4.7393211   7.7939899  27.7229647
   5.5963929   8.3396436  28.8452712   7.5137980   6.0640929  29.7948760
   6.8712360   6.3573462  29.1488555   7.0092908   5.9493849  30.6001957
   5.1678144   9.8104102  20.4834619   6.0796000  10.0431489  20.3082317
   4.6587791  10.3941146  19.9209698   3.4518911  14.2328730  34.1195912
   3.8602267  13.7911141  33.3750544   2.7296173  13.6581358  34.3730105
   3.7747726  14.7929921  27.8748201   3.1456588  14.9575635  27.1724269
   3.3873388  15.2071530  28.6459165   7.6536958  15.7284359  25.2292565
   6.9687996  16.1083260  24.6789598   7.7380807  16.3379685  25.9624512
   2.9549427   6.8305705  33.1510643   2.7110359   7.5847766  32.6144918
   3.2309357   7.2091053  33.9857890   4.9087889  13.3744318  31.8287908
   5.1204785  14.0176077  31.1522289   4.8617638  12.5406634  31.3609838
   6.0233717  16.2516273  30.0010266   6.8451161  15.8496460  29.7192947
   6.0196120  16.1484507  30.9526381  14.1139710  12.5955021  26.3495237
  13.3603419  12.0262420  26.1939241  14.2487252  12.5617686  27.2965872
   1.1306815  18.0891990  36.1550298   0.6870669  17.3028369  35.8371203
   1.7924028  18.2771141  35.4894189   3.2288053  18.3694790  34.1831700
   3.2106528  19.1903671  33.6911969   4.1507973  18.2448865  34.4081841
   2.8181085  10.9807597  19.0621285   2.3027708  11.7512201  19.3009672
   2.5458393  10.3072733  19.6854346   7.7915359  13.7339951  20.9974458
   7.0144802  13.3951111  20.5529620   8.4706840  13.7392575  20.3229423
   2.6067388   8.8534689  20.8881066   2.3017524   9.1680838  21.7391209
   3.5597830   8.9316109  20.9308399   6.0306666  13.2073933  27.6541066
   5.3730340  13.8973194  27.7421195   6.8347065  13.5970365  27.9975053
   4.8412125  11.5618305  25.7045008   5.3544006  12.1948297  26.2066718
   5.4913348  10.9619501  25.3388368   2.1034499  21.5402630  18.4605679
   1.4296198  21.8434326  19.0690637   2.4900321  22.3431710  18.1111136
   2.1028003  10.4359177  23.0806029   2.8499822  10.9480574  22.7713151
   2.3719593  10.1143229  23.9410422   5.6073921  16.5424307  23.8324151
   5.1536248  15.7015217  23.8889341   4.9767888  17.1785705  24.1698931
   4.5506840   7.4716293  25.0624818   3.8129597   6.9593679  25.3935061
   4.8033614   7.0316674  24.2508095   4.0506860  18.3800803  24.7673969
   4.3429834  18.9405861  24.0486335   4.5605481  18.6729364  25.5227128
   2.4606119   9.6265222  32.7548051   2.8155507   9.8536695  33.6142517
   3.1078250   9.9583599  32.1325307   8.1903856  12.7483658  23.4597380
   8.0521755  12.9385254  22.5318570   7.8340075  13.5103041  23.9165431
   8.2173236  14.8160185  28.4708652   8.6509742  14.7235474  29.3191706
   8.9304816  14.7917685  27.8328668   1.9501130  18.4162279  30.0041752
   2.0038153  18.9853215  30.7719468   1.0815912  18.5864164  29.6395790
   9.0788785  14.8583886  31.0041537   9.2724675  15.7629696  31.2500812
   8.9789403  14.3991305  31.8380122   4.1403894  15.0090628  36.5782418
   3.9889400  14.7801180  35.6612502   4.1308573  15.9661230  36.5913763
   1.2582777  15.9854808  26.7216060   0.9232610  15.9455578  27.6173710
   0.7586723  15.3199524  26.2486470   4.1941969  13.3310843  16.9953119
   3.5771139  12.6057671  16.8986172   3.7258457  14.0920203  16.6520194
   5.8496100  18.0409751  34.6558900   5.7908647  17.3568971  33.9889483
   6.2515619  18.7828741  34.2039526   5.8513508  16.0049335  32.8872879
   4.9640287  15.6675257  33.0099278   6.4212059  15.2732366  33.1241645
  10.3330848  11.4157552  27.6489441  10.3220725  12.2982268  27.2783374
   9.4648228  11.0629103  27.4543978   1.8413345  20.5637621  32.0092281
   2.5541317  21.1985086  31.9368183   1.3503373  20.6601487  31.1932283
   3.5630872  14.4688874  23.5809573   2.6287150  14.5890336  23.4114277
   3.7407540  13.5661341  23.3169583   6.9503423  10.3106193  24.1159607
   7.4163875  11.1434185  24.0419910   7.4010923   9.8451175  24.8204866
   5.0179654  16.6550015  21.1145759   5.2939498  16.5406609  22.0239633
   4.1484153  16.2567499  21.0757932   4.6926544  10.8676672  30.6550402
   4.0397994  11.1152580  30.0002855   5.0706924  10.0540810  30.3212880
   1.6533718  20.9036365  24.7578573   1.8356113  20.0858021  25.2206325
   2.4766704  21.1204058  24.3203463   1.9875884  19.8304551  22.0193621
   2.5163650  19.3197005  21.4063783   2.2504103  19.5147081  22.8839154
   4.3347774  17.7424668  37.2322710   4.8787678  18.3554626  36.7377665
   3.7534619  18.3004247  37.7489723   2.6205287  20.8645386  28.3637738
   2.4956427  20.0635126  27.8548683   3.2784378  21.3591580  27.8751708
   4.6840196  18.6654406  29.9917288   3.7370531  18.5459758  29.9195615
   5.0322969  17.7776904  30.0743549   1.6886629  18.4607123  26.1921640
   1.5411591  17.5323830  26.3729210   2.5140123  18.4827213  25.7078715
   5.2920751  19.2835681  27.2786513   6.2167298  19.0778543  27.1410964
   5.1236054  19.0352082  28.1875854   5.0816067  19.8021349  22.6348604
   5.2552945  19.2367771  21.8822457   5.5744958  20.6022244  22.4528094
  10.9355458  12.5657772  24.2538904  11.3786604  11.8165097  23.8558027
  10.0581969  12.5567908  23.8712636   6.0691240  19.1188113  19.7345502
   6.7642144  19.7394806  19.9532817   6.4114390  18.2683464  20.0097880
   7.9682663  16.5687819  21.2632833   8.4933987  16.9075091  20.5382153
   7.8805015  15.6334834  21.0795968   7.6576569  17.2020722  36.5684031
   6.8672112  17.1844861  36.0288531   7.4209923  17.7409016  37.3233068
   7.7774444  14.0513189  33.8816760   7.8272449  13.8863196  34.8232283
   7.6688367  13.1840448  33.4914641   5.0678206  10.0344117  35.1976066
   5.9688069   9.8950582  34.9060064   5.1426181  10.1998572  36.1374244
   9.2792641  16.4710130  34.1258781   8.9877449  16.8340111  34.9622242
   8.6664772  15.7577138  33.9472113  10.4788323  14.0363010  26.6461352
  11.3135214  14.4752814  26.8098912  10.6147452  13.5601663  25.8269597
   7.5279829  11.5942745  32.5938839   8.0033950  11.7870391  31.7857691
   6.6045394  11.6501931  32.3482223   6.2281498   8.4708505  30.8267145
   7.1798921   8.5706603  30.8479369   6.0584948   7.6786773  31.3365229
   3.3803368  19.5087015  19.7729178   4.3134041  19.4432577  19.9762054
   3.2926581  20.3443282  19.3143711   6.0091384  18.8252885  16.7333126
   5.9305016  18.4912749  17.6268884   6.8301051  19.3174653  16.7324598
   8.7069576  11.6914625  29.9409445   8.6745896  10.7530625  30.1269128
   9.3170199  11.7698661  29.2075269   8.8564064   8.4825668  29.9867728
   8.3403113   7.6984125  29.7997657   9.7404013   8.1544385  30.1514247
  14.5246126  12.7530631  29.0815481  15.2549514  12.4915920  29.6423185
  13.9153071  12.0159353  29.1217549  12.6061423  10.8938494  29.6789933
  11.8794586  10.7594459  29.0706424  12.1908710  11.2015323  30.4846651
   4.4352123   6.3776206  22.2595084   3.5477978   6.6625857  22.0415279
   4.8506112   6.2169969  21.4122361   7.7866659   6.4022727  25.9749423
   8.5627049   6.8919179  26.2474040   7.0614793   6.8280781  26.4321293
  10.2239218   7.1150346  27.0323364  10.8183708   6.8746082  26.3216672
  10.2965801   6.3957477  27.6596900   3.5795336  16.1420881  16.3543104
   4.2831186  16.3470883  16.9700760   2.8557985  16.7097643  16.6192188
   4.4093147  11.8930742  22.4745374   4.3528348  12.3499293  21.6353007
   4.9621489  11.1321427  22.2968217   8.2197952   7.6820474  23.2995494
   7.9634887   7.2817109  24.1303702   7.5950820   8.3964268  23.1745633
  12.5310290  10.4216547  25.8066785  11.9709848  10.4909736  26.5798347
  11.9253794  10.2457532  25.0866282   5.4882034  16.5803410  18.4041564
   6.3227638  16.1484608  18.2219039   5.3266377  16.4085424  19.3318459
   5.1427926  13.0835523  19.7697904   5.0876730  12.9179795  18.8286348
   4.5173981  13.7911556  19.9260093   2.4573833  15.3884435  39.0951466
   3.3264993  15.5625087  38.7338101   1.9780584  16.2078852  38.9727196
  14.1166309  27.0973061  28.4996741  14.7544719  26.9779808  27.7960081
  13.9987152  28.0453905  28.5584693  10.9256015  27.0500489  28.4358266
  10.5874527  26.9341554  27.5478801  11.7945783  26.6491654  28.4159272
   6.7842831  28.9035966  24.4255157   6.2207696  28.8125902  23.6571444
   6.6695226  28.0835870  24.9057649  11.4075798  28.2035341  34.3944471
  11.3964439  27.8088139  33.5224975  11.5696438  27.4701413  34.9878243
   4.3307263  30.3987157  27.2639377   5.1228555  30.0577982  26.8485676
   4.5703913  30.5082132  28.1841530  12.3642389  32.5706933  19.7369622
  11.7130369  33.1561014  19.3503635  13.1586752  33.1013128  19.7964659
   6.2898017  29.6596070  20.1356756   7.0628893  29.1125057  19.9969632
   6.6423415  30.5240320  20.3471217   8.1283059  30.9872453  33.3423655
   7.8372925  31.8918083  33.2270322   8.7640044  31.0288980  34.0567725
   9.0539266  28.3649301  29.9325015   9.6502838  28.1405324  29.2181978
   9.1114238  27.6234047  30.5350463   8.6264294  25.8188736  17.7675206
   8.8789815  25.2970258  17.0058669   7.6888854  25.6554882  17.8701889
  13.6707577  24.8224515  25.5749949  14.4570666  24.4043938  25.2240366
  13.9346282  25.7270607  25.7431597  13.8417655  30.2597365  20.2738606
  13.2063488  30.3331992  20.9859511  13.5115061  30.8490964  19.5957685
   8.3460583  27.7216842  19.9699581   8.2296841  27.0461746  20.6380665
   8.4562843  27.2349216  19.1531734  10.6892124  27.1826990  23.6746270
  10.3250331  26.6557611  24.3859192  11.5459240  26.7925459  23.5012755
  16.5941425  18.4721322  30.9377536  16.2624750  19.3416733  30.7138751
  15.9987038  18.1557606  31.6171567  10.3297611  22.2116889  18.6707619
  10.4972013  23.0797126  19.0378090  10.1394780  22.3744171  17.7468908
  13.0872944  30.6733868  30.3373449  12.7873667  31.5758907  30.2289256
  12.7424004  30.4066051  31.1894602   6.5385426  27.1247665  26.3710153
   5.6135922  26.9923879  26.5787845   6.7869839  27.9041884  26.8680096
  16.4870088  23.1916408  28.0170886  15.5786965  23.1231817  27.7229647
  16.4357684  23.6688353  28.8452712  10.3086832  24.6674547  19.6554285
  10.1886457  25.1131598  20.4939766   9.6139420  25.0159864  19.0967824
   3.8994237  26.7680939  27.2053942   4.0286618  27.0215417  28.1193354
   3.2191688  27.3608647  26.8858597   8.0693724  37.4378188  23.3044417
   7.9917754  38.3886014  23.3832897   7.4655368  37.0924061  23.9619343
  10.5610954  24.6106054  35.9605784   9.7844288  25.1699974  35.9508648
  11.2001517  25.0962837  36.4820654  18.3531734  21.3932847  29.7948760
  17.7106115  21.6865380  29.1488555  17.8486663  21.2785767  30.6001957
  16.0071898  25.1396020  20.4834619  16.9189754  25.3723407  20.3082317
  15.4981545  25.7233064  19.9209698   8.8157326  27.4191507  35.5223751
   9.5572010  27.9576551  35.2458574   8.1094312  28.0457796  35.6795302
  14.2912666  29.5620648  34.1195912  14.6996022  29.1203058  33.3750544
  13.5689927  28.9873275  34.3730105  10.6443736  24.4993255  31.4929469
  11.4904931  24.9232668  31.6364118  10.5842373  23.8426879  32.1868032
  14.6141480  30.1221838  27.8748201  13.9850343  30.2867552  27.1724269
  14.2267142  30.5363448  28.6459165  18.4930712  31.0576276  25.2292565
  17.8081750  31.4375178  24.6789598  18.5774562  31.6671603  25.9624512
  13.7943181  22.1597623  33.1510643  13.5504113  22.9139683  32.6144918
  14.0703112  22.5382970  33.9857890  15.7481644  28.7036235  31.8287908
  15.9598539  29.3467995  31.1522289  15.7011392  27.8698552  31.3609838
  13.3507873  21.3154056  28.7324480  12.4892352  21.6135309  29.0241218
  13.3770308  21.5324455  27.8005513  10.1669442  29.8596246  25.1398286
  10.6307788  30.1383949  24.3502908   9.9026240  28.9579691  24.9571377
   7.0593523  29.4067728  28.0778049   7.6294880  29.8354996  27.4395534
   7.6501635  29.1250313  28.7762235   9.1038328  25.9819399  21.9487851
   9.8062372  26.4340442  22.4161777   8.7718957  25.3403218  22.5767744
   7.5518690  24.5731155  36.3239061   6.9217350  25.2547436  36.5574457
   7.4454778  24.4614237  35.3792199   2.8463662  24.2402951  27.2504985
   2.0562716  24.4960480  26.7745095   3.3374910  25.0551289  27.3557025
  16.8627472  31.5808191  30.0010266  17.6844916  31.1788378  29.7192947
  16.8589875  31.4776425  30.9526381   4.7978408  24.6047531  24.2088461
   4.0009571  24.7166225  24.7271957   4.5704000  24.9434183  23.3429352
  10.6284075  31.1292234  32.1570976  10.6928508  31.5912641  32.9929148
   9.9194999  30.4989599  32.2853286   1.1301365  24.4933442  29.6819975
   1.3809404  25.3780452  29.9477551   1.6660914  24.3138043  28.9095067
  10.3432093  32.7960341  22.0249956  10.2077768  33.6411877  22.4534804
  10.8841905  32.9979619  21.2615890   6.8299433  18.8751921  38.6864312
   6.4366378  18.3218120  39.3611956   7.6465573  19.1862500  39.0770829
   3.7961490  30.3135779  22.5977881   4.3086011  31.1079030  22.7483446
   4.4484203  29.6162070  22.5311483   5.6056375  33.4301536  24.6800635
   5.7823003  34.3519500  24.4921619   6.4013209  33.1159955  25.1095014
   9.7467394  20.2909800  36.2784568  10.4877107  20.8916954  36.1989031
   9.9785316  19.5487438  35.7202611   4.8908732  25.4766168  34.5562798
   4.7762247  24.5751425  34.8569897   4.0353249  25.7229864  34.2047614
  11.9700569  33.4183908  36.1550298  11.5264424  32.6320287  35.8371203
  12.6317783  33.6063058  35.4894189   6.7287691  34.9479710  30.6810977
   7.2795116  34.8196773  29.9087971   5.8899166  35.2474599  30.3305870
  14.0681807  33.6986708  34.1831700  14.0500283  34.5195589  33.6911969
  14.9901727  33.5740783  34.4081841  10.5254862  31.2130837  35.0255208
  11.0583198  30.4519126  34.7954516   9.9968943  30.9204489  35.7679363
  13.6924557  16.3190903  30.5548850  13.3488826  17.2092545  30.4787960
  14.0603519  16.1292561  29.6918435   1.7610407  28.6424434  23.3737452
   2.5985629  29.0521442  23.1571160   1.9388675  27.7023876  23.3437646
  13.6574839  26.3099514  19.0621285  13.1421463  27.0804119  19.3009672
  13.3852148  25.6364651  19.6854346  11.2421950  21.1549215  24.1206523
  10.3863547  20.7656066  23.9412162  11.6548902  21.2341176  23.2606309
  12.7721097  18.6895558  28.5198083  12.2685893  18.6525694  27.7065888
  13.0651704  19.5988301  28.5794740   9.0163983  18.7734288  27.5264265
   9.8816980  18.5777097  27.1670154   9.0841492  18.5444640  28.4533622
  18.6309113  29.0631869  20.9974458  17.8538556  28.7243029  20.5529620
  19.3100594  29.0684492  20.3229423  13.4461142  24.1826607  20.8881066
  13.1411278  24.4972756  21.7391209  14.3991585  24.2608026  20.9308399
  11.8907574  30.3416830  22.5374020  11.3628936  29.6069589  22.2247258
  11.3895077  31.1191506  22.2913988   6.6226302  21.0036496  24.8980632
   7.1970054  20.7811678  24.1653825   7.2097284  21.0725191  25.6509233
  15.6805879  26.8910223  25.7045008  16.1937761  27.5240215  26.2066718
  16.3307103  26.2911419  25.3388368   6.9495889  23.0340957  18.9176517
   6.1133201  23.3715644  19.2385792   6.8100659  22.8989937  17.9803654
   8.9248970  17.8777745  23.6255701   8.2713382  17.5626762  23.0012316
   8.8829444  17.2553485  24.3515524  10.0360174  28.1597040  15.5408993
   9.1287236  27.9286294  15.7400142  10.5331206  27.3634659  15.7282975
  12.9428253  36.8694547  18.4605679  12.2689952  37.1726244  19.0690637
  13.3294075  37.6723628  18.1111136  12.1586710  24.3659679  27.9503349
  11.2409271  24.5874626  27.7925037  12.5746854  24.4405989  27.0915056
  12.9421758  25.7651094  23.0806029  13.6893577  26.2772491  22.7713151
  13.2113347  25.4435147  23.9410422  11.2148408  28.2609635  20.0632983
  10.3059627  27.9768668  20.1605453  11.2443492  28.6808714  19.2036290
  16.4467675  31.8716224  23.8324151  15.9930002  31.0307134  23.8889341
  15.8161642  32.5077623  24.1698931  15.3900595  22.8008211  25.0624818
  14.6523352  22.2885597  25.3935061  15.6427368  22.3608592  24.2508095
  14.8900615  33.7092721  24.7673969  15.1823589  34.2697778  24.0486335
  15.3999235  34.0021282  25.5227128  15.4912222  15.5784463  25.6566587
  15.7971099  14.7181826  25.3692503  16.2164827  16.1702083  25.4565581
   1.7836578  25.9815149  24.0448185   1.5860978  25.3884510  23.3199252
   1.2283242  25.6767359  24.7624124   9.7633302  25.8738256  26.1642779
   9.8181912  24.9212092  26.0885255   8.9524504  26.0297695  26.6484077
  10.9124496  29.8018379  17.4021062  10.4743926  29.0854238  16.9426699
  11.6534937  30.0294493  16.8406153   7.7025662  24.4915315  23.9233157
   6.8893527  24.7909486  24.3298350   8.1984656  24.0971004  24.6407640
   9.8534240  34.4873072  25.8567422   9.8110419  34.7133919  24.9275954
  10.7696939  34.2536447  26.0053223  13.2999874  24.9557140  32.7548051
  13.6549261  25.1828613  33.6142517  13.9472005  25.2875517  32.1325307
  19.0297610  28.0775576  23.4597380  18.8915509  28.2677172  22.5318570
  18.6733829  28.8394959  23.9165431   7.1939737  22.0633671  29.5394392
   7.8339116  21.9222430  28.8417356   6.3617267  21.7768184  29.1632994
   7.9700041  31.3636101  25.6529385   8.7640639  30.8686421  25.4511960
   7.2591733  30.8353964  25.2897090  12.7894885  33.7454197  30.0041752
  12.8431907  34.3145133  30.7719468  11.9209666  33.9156082  29.6395790
   4.2782804  25.5079183  21.7289138   3.3480392  25.4463638  21.9459100
   4.3740276  24.9855136  20.9325779   4.1968353  22.0333996  24.3167379
   4.4575170  22.9479329  24.2076540   5.0185525  21.5658438  24.4663992
   5.6693278  23.4471753  31.4866204   6.3416332  23.2389115  30.8378853
   4.8423065  23.2493839  31.0471436  11.5718850  20.0733694  33.5031865
  10.9246765  20.7723644  33.4096341  12.3419866  20.5069838  33.8708113
  14.9797648  30.3382546  36.5782418  14.8283155  30.1093098  35.6612502
  14.9702328  31.2953148  36.5913763  11.7482985  27.9114459  31.5628684
  12.6775045  28.0625618  31.3897652  11.3274015  27.9998480  30.7077331
  10.5471317  31.9365123  29.3327222  10.4082402  31.5683908  30.2053160
   9.7585913  32.4512763  29.1611180  11.1419468  37.0374220  20.6752758
  11.3171224  36.5662263  21.4898381  10.4552257  37.6639986  20.9034019
  12.0976532  31.3146726  26.7216060  11.7626364  31.2747496  27.6173710
  11.5980477  30.6491442  26.2486470   6.0720776  26.7214356  32.2468641
   5.9340574  25.9894595  32.8480180   6.9825699  26.6323256  31.9652829
  15.0335723  28.6602760  16.9953119  14.4164894  27.9349588  16.8986172
  14.5652212  29.4212121  16.6520194   8.7003076  26.4334315  31.7352321
   9.4102695  25.7927508  31.6938939   8.6572384  26.6847210  32.6578501
  16.6889855  33.3701669  34.6558900  16.6302401  32.6860889  33.9889483
  17.0909373  34.1120659  34.2039526   7.4132010  23.4199533  33.5547960
   6.8769367  22.9690272  34.2069556   6.8248719  23.5545442  32.8118424
   5.7080554  40.1863582  27.4492619   5.9477152  40.8182107  28.1271637
   4.8649750  39.8351623  27.7357978   6.8234269  22.8788185  16.1174424
   5.9463736  22.7576985  15.7536670   7.2992022  22.0874263  15.8653312
  16.6907262  31.3341253  32.8872879  15.8034041  30.9967174  33.0099278
  17.2605813  30.6024284  33.1241645   3.1471131  22.5555541  30.6400954
   3.0629320  21.9481210  29.9051364   2.3253838  23.0464559  30.6410451
  10.2208416  35.9942705  29.8534123  10.1478587  36.7997676  30.3653427
   9.7785809  36.1934671  29.0282144  10.0098195  35.2314475  23.3636944
   9.2265717  35.7736155  23.4575169  10.7090940  35.7488455  23.7631185
  13.3194845  21.0409104  26.0071150  13.8163545  20.2879067  25.6872220
  12.5481827  21.0773421  25.4414359  12.6807099  35.8929539  32.0092281
  13.3935071  36.5277004  31.9368183  12.1897128  35.9893405  31.1932283
  14.4024626  29.7980792  23.5809573  13.4680905  29.9182254  23.4114277
  14.5801295  28.8953258  23.3169583   9.9029814  23.1826487  25.7342834
   9.5327602  22.6297528  26.4223740  10.3988907  22.5784621  25.1817834
  17.7897177  25.6398111  24.1159607  18.2557630  26.4726103  24.0419910
  18.2404678  25.1743092  24.8204866   7.7319013  33.6423982  32.8297852
   8.4328472  34.2760465  32.9827246   7.2614128  33.9838714  32.0693491
  15.8573409  31.9841932  21.1145759  16.1333252  31.8698527  22.0239633
  14.9877907  31.5859417  21.0757932  15.7613840  18.0078698  28.1550508
  14.8476920  18.2382925  28.3232715  16.1906942  18.0917142  29.0064541
  15.5320299  26.1968590  30.6550402  14.8791749  26.4444497  30.0002855
  15.9100679  25.3832728  30.3212880  12.4927473  36.2328283  24.7578573
  12.6749867  35.4149939  25.2206325  13.3160459  36.4495975  24.3203463
  12.8269638  35.1596468  22.0193621  13.3557404  34.6488923  21.4063783
  13.0897858  34.8438998  22.8839154  11.5807872  26.9388401  37.1416440
  10.9048509  26.8382530  37.8118815  12.4035506  26.7827615  37.6052437
   3.3286731  33.1760337  29.7628955   3.9140168  32.4304025  29.8956859
   3.1311569  33.4864294  30.6465619   6.1825386  36.2111585  24.7791397
   5.5135761  36.6957712  24.2955437   6.0438256  36.4580805  25.6934776
  10.3230655  38.2455328  31.3774056  10.8748963  38.4086950  32.1423141
  10.6636848  38.8359766  30.7054080   5.2995148  20.5930478  31.9795940
   5.3636474  21.4545309  31.5673338   5.2362268  19.9804480  31.2468299
   4.7747420  22.6653611  35.6268974   5.4019459  22.2830688  36.2406499
   3.9175339  22.4467813  35.9924667  15.1741529  33.0716586  37.2322710
  15.7181433  33.6846544  36.7377665  14.5928374  33.6296164  37.7489723
   1.5512963  24.4730040  21.5587329   1.8466404  23.5640718  21.5054383
   0.6500999  24.4517779  21.2368332  13.4599042  36.1937304  28.3637738
  13.3350181  35.3927044  27.8548683  14.1178133  36.6883497  27.8751708
   5.0807210  22.5486036  27.5414878   4.3593796  23.1622004  27.4022351
   5.8700466  23.0843801  27.4631524  15.5233950  33.9946324  29.9917288
  14.5764286  33.8751675  29.9195615  15.8716723  33.1068822  30.0743549
   7.8833524  19.8840463  33.8155530   8.4067925  20.1302759  34.5781839
   7.6645857  20.7160498  33.3958667   3.2800805  22.1544137  21.6826654
   2.9513511  21.2741516  21.5001760   3.6340175  22.0991806  22.5703044
  12.5280384  33.7899040  26.1921640  12.3805346  32.8615748  26.3729210
  13.3533877  33.8119131  25.7078715   6.3942628  22.4417107  22.0502132
   6.7338700  22.9703029  21.3280741   6.8414748  22.7797513  22.8260699
  16.1314505  34.6127599  27.2786513  17.0561053  34.4070460  27.1410964
  15.9629809  34.3644000  28.1875854   9.0886069  20.8254158  31.5005200
   8.7482889  20.0261971  31.9025880   8.3825075  21.1255869  30.9282033
   9.7402540  17.9103470  29.9532523  10.5628610  17.4363949  29.8311414
   9.9840604  18.6893954  30.4531210   8.3810775  20.9391729  20.2495425
   9.1019137  21.3172982  19.7459142   7.7576079  21.6580606  20.3530403
  12.5241898  21.6436878  21.1853757  12.7405512  22.5261516  20.8842585
  12.0435965  21.2523091  20.4559399   7.2641119  24.6022591  27.7624502
   7.1185700  24.9162894  28.6548783   6.7866323  25.2207491  27.2095400
   9.1237502  21.5925139  27.8105391   9.1099071  20.6966232  27.4737689
   9.8409930  21.5995803  28.4443677  10.9763633  22.0262479  29.8558519
  10.7181411  22.9479550  29.8542849  10.4448673  21.6292914  30.5458983
  15.9209822  35.1313266  22.6348604  16.0946699  34.5659689  21.8822457
  16.4138713  35.9314161  22.4528094   1.7386781  27.1427935  30.7012163
   1.1940249  27.9187743  30.8332437   2.6166131  27.4898740  30.5431284
   8.5274398  20.4739519  23.0792962   8.6490309  19.5456166  23.2783849
   8.2376440  20.4878205  22.1671277  11.3965588  18.1594430  26.2159681
  11.4187285  18.2233763  25.2611661  11.8133647  17.3198938  26.4100188
  16.9084994  34.4480031  19.7345502  17.6035899  35.0686723  19.9532817
  17.2508144  33.5975382  20.0097880   2.5252803  26.2697832  33.5942320
   1.7834539  26.4180467  34.1806950   2.2045548  26.5306097  32.7309069
  18.8076417  31.8979736  21.2632833  19.3327741  32.2367009  20.5382153
  18.7198770  30.9626752  21.0795968  10.4696466  35.8113810  33.3922710
  10.7783592  35.5662957  34.2645409  11.2671948  36.0160448  32.9041580
  10.4917078  37.9651720  25.6228086  10.0522068  37.4728098  26.3160943
  11.2425195  37.4224687  25.3820162   2.9709417  34.1563260  25.6252715
   3.7967437  33.8567032  25.2451358   2.6203469  33.3870883  26.0742503
   7.9390950  33.5089729  27.6950388   7.3170959  32.8460434  27.3952616
   8.6095817  33.5350861  27.0124036   8.0115478  21.9871517  37.2882894
   8.0603633  22.8633640  36.9060664   8.5537992  21.4448910  36.7154537
  18.4970323  32.5312640  36.5684031  17.7065867  32.5136779  36.0288531
  18.2603678  33.0700934  37.3233068   7.5004457  32.0593652  21.1708849
   7.6492577  32.7429116  20.5175521   8.3070900  32.0398742  21.6858304
  15.9071961  25.3636034  35.1976066  16.8081823  25.2242499  34.9060064
  15.9819935  25.5290489  36.1374244  10.2414766  22.7402889  34.0429253
   9.3718075  23.0336455  33.7711841  10.4774246  23.3243334  34.7636516
   5.2557090  28.0858830  22.1769918   5.0103132  27.1821160  22.3750128
   5.4253005  28.0875980  21.2349396  12.9453800  18.9582506  31.5594673
  13.4635744  19.6943533  31.2341162  12.5908933  19.2646499  32.3941432
   4.5252737  23.8187187  19.6756079   3.8321982  23.8931542  19.0196115
   4.2804489  23.0547531  20.1977596  13.1966394  15.3782789  27.0795570
  13.4768148  14.7105978  27.7055996  13.9817001  15.5711884  26.5670234
  10.9999863  34.5541782  18.6420596  10.4273830  35.1731970  18.1891068
  11.5732656  35.1041144  19.1760518  17.0675252  23.8000423  30.8267145
  18.0192675  23.8998520  30.8479369  16.8978703  23.0078691  31.3365229
  15.0889632  20.8856006  31.0126546  14.4939564  21.1661019  30.3173034
  14.8039329  21.3749907  31.7843287  14.2197122  34.8378933  19.7729178
  15.1527795  34.7724494  19.9762054  14.1320335  35.6735199  19.3143711
  16.8485139  34.1544803  16.7333126  16.7698770  33.8204667  17.6268884
  17.6694806  34.6466571  16.7324598  11.3846661  25.8902595  15.9836649
  12.3305766  25.7608803  16.0525067  11.0060906  25.1517257  16.4606077
  17.3568546  17.5558601  25.9463540  17.1593367  17.2473689  26.8306872
  17.9668251  18.2820240  26.0761470  11.2685354  29.9420341  37.4437306
  12.1888363  30.1198940  37.6377352  11.2334937  28.9976387  37.2917005
   9.5689578  23.8152572  15.9191534   8.6621034  23.5185684  15.9954247
   9.8465559  23.5182390  15.0525820   4.2647426  27.8521376  30.0860087
   4.4833436  28.7838484  30.1048121   4.6773200  27.4929350  30.8714891
  11.1851644  18.3589461  22.0735775  10.3752372  18.0136546  22.4491021
  11.8736061  18.0497005  22.6623387  13.1142192  17.4367508  23.6960072
  13.6673231  17.8562962  24.3550095  13.3512279  16.5103256  23.7383028
   9.1375291  23.4254582  39.4762836   9.0372018  24.3748939  39.4074927
   8.9196833  23.0972821  38.6038906   8.3388363  20.6739507  16.0603513
   9.2007527  20.9994405  16.3199330   8.5238707  19.8871003  15.5476579
  16.4920999  19.5468033  23.2038736  15.9119668  20.2052837  22.8216788
  16.2256932  18.7245378  22.7926153  14.9424566  18.9473091  25.4060056
  15.4424344  19.0589626  24.5974375  15.5860174  18.6434144  26.0460865
   9.0006561  26.8551721  38.2927897   8.5173643  27.6552081  38.4991786
   9.0867500  26.8659665  37.3395341   2.2692521  28.6880100  26.2149717
   2.2463209  28.7867788  25.2631600   2.5793158  29.5345251  26.5366883
   4.9279899  30.7456255  30.3296331   5.8823152  30.7140198  30.2626263
   4.7292423  30.2846879  31.1446557   5.5179281  29.3157371  32.8967129
   6.3372170  29.8101450  32.9201966   5.7916089  28.3989340  32.8684696
  15.2745877  21.7068124  22.2595084  14.3871732  21.9917774  22.0415279
  15.6899866  21.5461887  21.4122361  18.6260413  21.7314645  25.9749423
  19.4020804  22.2211097  26.2474040  17.9008548  22.1572699  26.4321293
   3.2830128  36.2875875  27.3466529   3.1484596  35.5276276  26.7804527
   2.8662190  37.0116775  26.8795318  14.4189091  31.4712798  16.3543104
  15.1224941  31.6762801  16.9700760  13.6951740  32.0389560  16.6192188
  15.2486901  27.2222660  22.4745374  15.1922102  27.6791211  21.6353007
  15.8015243  26.4613344  22.2968217  19.0591707  23.0112391  23.2995494
  18.8028641  22.6109027  24.1303702  18.4344575  23.7256185  23.1745633
   6.4399254  37.1845192  27.5584972   6.3231638  38.1290624  27.4563662
   5.6191700  36.8818753  27.9470771  16.3275788  31.9095328  18.4041564
  17.1621392  31.4776526  18.2219039  16.1660131  31.7377341  19.3318459
  15.9821680  28.4127441  19.7697904  15.9270484  28.2471712  18.8286348
  15.3567736  29.1203474  19.9260093   0.7714195  23.6495505  33.5959326
   1.4173059  23.1394459  34.0846551   0.5631346  24.3864187  34.1702751
  13.2967588  30.7176353  39.0951466  14.1658747  30.8917005  38.7338101
  12.8174339  31.5370770  38.9727196   9.2917806  17.9135550  19.3483222
   9.2796476  18.8577390  19.5051493  10.1841228  17.7305695  19.0542683
   7.4653768  37.8373454  30.7740900   8.3681014  37.8697064  31.0907395
   7.2391138  36.9073905  30.7887236   9.2207370  36.5904440  27.4350979
   8.2703001  36.5906302  27.3215351   9.5239856  35.8437175  26.9187013
  13.1069925  14.5078327  23.6029159  12.3402321  13.9536813  23.7485841
  13.5180630  14.5800195  24.4643310   5.1111686  20.7963122  37.6934340
   5.9743148  20.4399927  37.9037665   4.5377097  20.4577017  38.3809744
  24.9560063  42.4264979  28.4996741  25.5938473  42.3071726  27.7960081
  24.8380906  43.3745823  28.5584693  21.7649770  42.3792407  28.4358266
  21.4268281  42.2633471  27.5478801  22.6339538  41.9783572  28.4159272
  17.6236585  44.2327883  24.4255157  17.0601450  44.1417820  23.6571444
  17.5088980  43.4127788  24.9057649  22.2469553  43.5327259  34.3944471
  22.2358193  43.1380057  33.5224975  22.4090192  42.7993331  34.9878243
  15.1701017  45.7279075  27.2639377  15.9622309  45.3869899  26.8485676
  15.4097667  45.8374050  28.1841530  23.2036144  47.8998851  19.7369622
  22.5524124  48.4852931  19.3503635  23.9980507  48.4305046  19.7964659
  17.1291771  44.9887988  20.1356756  17.9022647  44.4416975  19.9969632
  17.4817170  45.8532237  20.3471217  18.9676814  46.3164370  33.3423655
  18.6766680  47.2210001  33.2270322  19.6033798  46.3580898  34.0567725
  19.8933021  43.6941219  29.9325015  20.4896593  43.4697241  29.2181978
  19.9507992  42.9525964  30.5350463  19.4658049  41.1480654  17.7675206
  19.7183570  40.6262175  17.0058669  18.5282608  40.9846800  17.8701889
  24.5101332  40.1516433  25.5749949  25.2964421  39.7335856  25.2240366
  24.7740036  41.0562525  25.7431597  24.6811409  45.5889283  20.2738606
  24.0457242  45.6623909  20.9859511  24.3508815  46.1782882  19.5957685
  29.9109759  40.0891666  26.4782928  30.6434931  39.5190883  26.7120757
  29.1549115  39.7013266  26.9189433  19.1854338  43.0508760  19.9699581
  19.0690596  42.3753663  20.6380665  19.2956598  42.5641134  19.1531734
  21.5285879  42.5118907  23.6746270  21.1644086  41.9849528  24.3859192
  22.3852994  42.1217376  23.5012755  21.1691366  37.5408807  18.6707619
  21.3365768  38.4089043  19.0378090  20.9788535  37.7036089  17.7468908
  23.9266699  46.0025786  30.3373449  23.6267422  46.9050825  30.2289256
  23.5817758  45.7357969  31.1894602  17.3779180  42.4539583  26.3710153
  16.4529677  42.3215797  26.5787845  17.6263593  43.2333802  26.8680096
  27.3263843  38.5208326  28.0170886  26.4180720  38.4523734  27.7229647
  27.2751438  38.9980271  28.8452712  21.1480586  39.9966464  19.6554285
  21.0280212  40.4423515  20.4939766  20.4533175  40.3451782  19.0967824
  14.7387991  42.0972856  27.2053942  14.8680372  42.3507335  28.1193354
  14.0585443  42.6900564  26.8858597  21.4004708  39.9397972  35.9605784
  20.6238042  40.4991892  35.9508648  22.0395271  40.4254755  36.4820654
  29.1925489  36.7224764  29.7948760  28.5499869  37.0157298  29.1488555
  28.6880417  36.6077685  30.6001957  26.8465653  40.4687938  20.4834619
  27.7583509  40.7015324  20.3082317  26.3375300  41.0524982  19.9209698
  19.6551081  42.7483425  35.5223751  20.3965765  43.2868469  35.2458574
  18.9488066  43.3749714  35.6795302  25.1306420  44.8912565  34.1195912
  25.5389776  44.4494976  33.3750544  24.4083682  44.3165193  34.3730105
  21.4837490  39.8285172  31.4929469  22.3298686  40.2524586  31.6364118
  21.4236128  39.1718797  32.1868032  25.4535235  45.4513756  27.8748201
  24.8244097  45.6159470  27.1724269  25.0660897  45.8655366  28.6459165
  29.3324467  46.3868194  25.2292565  28.6475505  46.7667095  24.6789598
  29.4168316  46.9963521  25.9624512  26.5875398  44.0328153  31.8287908
  26.7992294  44.6759913  31.1522289  26.5405147  43.1990469  31.3609838
  21.0063197  45.1888164  25.1398286  21.4701542  45.4675867  24.3502908
  20.7419995  44.2871609  24.9571377  17.8987278  44.7359646  28.0778049
  18.4688635  45.1646914  27.4395534  18.4895390  44.4542230  28.7762235
  19.9432083  41.3111317  21.9487851  20.6456126  41.7632360  22.4161777
  19.6112711  40.6695135  22.5767744  18.3912444  39.9023073  36.3239061
  17.7611105  40.5839354  36.5574457  18.2848532  39.7906155  35.3792199
  13.6857417  39.5694869  27.2504985  12.8956471  39.8252398  26.7745095
  14.1768664  40.3843207  27.3557025  27.7021226  46.9100108  30.0010266
  28.5238670  46.5080296  29.7192947  27.6983629  46.8068343  30.9526381
  15.6372162  39.9339448  24.2088461  14.8403325  40.0458143  24.7271957
  15.4097754  40.2726101  23.3429352  21.4677830  46.4584152  32.1570976
  21.5322262  46.9204559  32.9929148  20.7588754  45.8281517  32.2853286
  11.9695120  39.8225360  29.6819975  12.2203158  40.7072370  29.9477551
  12.5054668  39.6429961  28.9095067  35.7927219  43.2538857  26.3495237
  35.0390928  42.6846255  26.1939241  35.9274761  43.2201521  27.2965872
  21.1825847  48.1252259  22.0249956  21.0471522  48.9703795  22.4534804
  21.7235660  48.3271537  21.2615890  17.6693187  34.2043839  38.6864312
  17.2760133  33.6510038  39.3611956  18.4859327  34.5154417  39.0770829
  14.6355245  45.6427697  22.5977881  15.1479765  46.4370947  22.7483446
  15.2877958  44.9453988  22.5311483  16.4450130  48.7593453  24.6800635
  16.6216758  49.6811418  24.4921619  17.2406963  48.4451873  25.1095014
  20.5861148  35.6201718  36.2784568  21.3270861  36.2208871  36.1989031
  20.8179071  34.8779356  35.7202611  15.7302486  40.8058085  34.5562798
  15.6156001  39.9043343  34.8569897  14.8747004  41.0521782  34.2047614
  22.8094324  48.7475826  36.1550298  22.3658178  47.9612204  35.8371203
  23.4711537  48.9354976  35.4894189  17.5681445  50.2771627  30.6810977
  18.1188870  50.1488691  29.9087971  16.7292921  50.5766516  30.3305870
  24.9075562  49.0278626  34.1831700  24.8894037  49.8487507  33.6911969
  25.8295482  48.9032701  34.4081841  21.3648616  46.5422755  35.0255208
  21.8976953  45.7811043  34.7954516  20.8362697  46.2496407  35.7679363
  12.6004162  43.9716351  23.3737452  13.4379384  44.3813360  23.1571160
  12.7782429  43.0315794  23.3437646  24.4968594  41.6391432  19.0621285
  23.9815217  42.4096037  19.3009672  24.2245902  40.9656568  19.6854346
  22.0815705  36.4841133  24.1206523  21.2257301  36.0947983  23.9412162
  22.4942657  36.5633094  23.2606309  29.4702868  44.3923787  20.9974458
  28.6932311  44.0534946  20.5529620  30.1494349  44.3976410  20.3229423
  24.2854897  39.5118524  20.8881066  23.9805032  39.8264673  21.7391209
  25.2385339  39.5899944  20.9308399  22.7301329  45.6708748  22.5374020
  22.2022690  44.9361507  22.2247258  22.2288831  46.4483424  22.2913988
  27.7094175  43.8657768  27.6541066  27.0517849  44.5557029  27.7421195
  28.5134574  44.2554200  27.9975053  17.4620056  36.3328414  24.8980632
  18.0363808  36.1103595  24.1653825  18.0491039  36.4017108  25.6509233
  26.5199634  42.2202141  25.7045008  27.0331515  42.8532133  26.2066718
  27.1700857  41.6203336  25.3388368  17.7889643  38.3632875  18.9176517
  16.9526956  38.7007561  19.2385792  17.6494413  38.2281855  17.9803654
  19.7642724  33.2069663  23.6255701  19.1107136  32.8918680  23.0012316
  19.7223198  32.5845403  24.3515524  20.8753929  43.4888958  15.5408993
  19.9680991  43.2578211  15.7400142  21.3724961  42.6926577  15.7282975
  23.7822008  52.1986465  18.4605679  23.1083707  52.5018162  19.0690637
  24.1687830  53.0015545  18.1111136  22.9980464  39.6951596  27.9503349
  22.0803026  39.9166543  27.7925037  23.4140608  39.7697907  27.0915056
  23.7815512  41.0943012  23.0806029  24.5287331  41.6064409  22.7713151
  24.0507102  40.7727065  23.9410422  22.0542162  43.5901553  20.0632983
  21.1453382  43.3060585  20.1605453  22.0837246  44.0100631  19.2036290
  27.2861430  47.2008142  23.8324151  26.8323757  46.3599052  23.8889341
  26.6555397  47.8369541  24.1698931  26.2294349  38.1300128  25.0624818
  25.4917106  37.6177514  25.3935061  26.4821123  37.6900510  24.2508095
  25.7294369  49.0384639  24.7673969  26.0217343  49.5989696  24.0486335
  26.2392990  49.3313200  25.5227128  12.6230333  41.3107067  24.0448185
  12.4254733  40.7176427  23.3199252  12.0676997  41.0059277  24.7624124
  20.6027056  41.2030173  26.1642779  20.6575666  40.2504010  26.0885255
  19.7918258  41.3589612  26.6484077  21.7518250  45.1310296  17.4021062
  21.3137680  44.4146155  16.9426699  22.4928691  45.3586411  16.8406153
  18.5419416  39.8207233  23.9233157  17.7287282  40.1201404  24.3298350
  19.0378411  39.4262922  24.6407640  20.6927994  49.8164990  25.8567422
  20.6504173  50.0425836  24.9275954  21.6090693  49.5828365  26.0053223
  24.1393628  40.2849057  32.7548051  24.4943016  40.5120531  33.6142517
  24.7865759  40.6167434  32.1325307  29.8691365  43.4067493  23.4597380
  29.7309264  43.5969089  22.5318570  29.5127584  44.1686876  23.9165431
  18.0333491  37.3925589  29.5394392  18.6732870  37.2514348  28.8417356
  17.2011022  37.1060102  29.1632994  29.8960745  45.4744020  28.4708652
  30.3297251  45.3819309  29.3191706  30.6092325  45.4501521  27.8328668
  18.8093795  46.6928019  25.6529385  19.6034393  46.1978339  25.4511960
  18.0985487  46.1645882  25.2897090  23.6288639  49.0746114  30.0041752
  23.6825662  49.6437051  30.7719468  22.7603421  49.2448000  29.6395790
  15.1176558  40.8371101  21.7289138  14.1874147  40.7755556  21.9459100
  15.2134030  40.3147053  20.9325779  15.0362108  37.3625914  24.3167379
  15.2968925  38.2771247  24.2076540  15.8579280  36.8950356  24.4663992
  16.5087033  38.7763671  31.4866204  17.1810086  38.5681033  30.8378853
  15.6816819  38.5785757  31.0471436  30.7576294  45.5167721  31.0041537
  30.9512184  46.4213532  31.2500812  30.6576912  45.0575140  31.8380122
  25.8191403  45.6674464  36.5782418  25.6676909  45.4385015  35.6612502
  25.8096082  46.6245065  36.5913763  22.5876739  43.2406377  31.5628684
  23.5168799  43.3917536  31.3897652  22.1667769  43.3290397  30.7077331
  21.3865071  47.2657041  29.3327222  21.2476157  46.8975825  30.2053160
  20.5979667  47.7804680  29.1611180  21.9813223  52.3666137  20.6752758
  22.1564979  51.8954181  21.4898381  21.2946011  52.9931904  20.9034019
  22.9370286  46.6438644  26.7216060  22.6020119  46.6039414  27.6173710
  22.4374232  45.9783360  26.2486470  16.9114530  42.0506274  32.2468641
  16.7734328  41.3186512  32.8480180  17.8219454  41.9615174  31.9652829
  25.8729478  43.9894678  16.9953119  25.2558648  43.2641506  16.8986172
  25.4045966  44.7504038  16.6520194  19.5396831  41.7626233  31.7352321
  20.2496449  41.1219425  31.6938939  19.4966139  42.0139128  32.6578501
  27.5283609  48.6993586  34.6558900  27.4696156  48.0152806  33.9889483
  27.9303128  49.4412576  34.2039526  18.2525765  38.7491451  33.5547960
  17.7163122  38.2982189  34.2069556  17.6642473  38.8837360  32.8118424
  17.6628024  38.2080102  16.1174424  16.7857490  38.0868903  15.7536670
  18.1385777  37.4166181  15.8653312  27.5301017  46.6633170  32.8872879
  26.6427795  46.3259092  33.0099278  28.0999568  45.9316201  33.1241645
   9.1830164  42.9957262  26.2115931   9.8701204  42.6818992  25.6236946
   9.0278293  43.8998627  25.9383182  13.9864886  37.8847459  30.6400954
  13.9023075  37.2773128  29.9051364  13.1647592  38.3756477  30.6410451
  21.0602170  51.3234623  29.8534123  20.9872342  52.1289594  30.3653427
  20.6179563  51.5226588  29.0282144  20.8491950  50.5606393  23.3636944
  20.0659472  51.1028073  23.4575169  21.5484695  51.0780372  23.7631185
  24.1588600  36.3701022  26.0071150  24.6557299  35.6170984  25.6872220
  23.3875581  36.4065339  25.4414359  32.0118357  42.0741388  27.6489441
  32.0008234  42.9566103  27.2783374  31.1435737  41.7212938  27.4543978
  23.5200854  51.2221457  32.0092281  24.2328826  51.8568921  31.9368183
  23.0290882  51.3185323  31.1932283  25.2418381  45.1272709  23.5809573
  24.3074659  45.2474172  23.4114277  25.4195049  44.2245176  23.3169583
  20.7423569  38.5118405  25.7342834  20.3721356  37.9589445  26.4223740
  21.2382661  37.9076539  25.1817834  28.6290932  40.9690029  24.1159607
  29.0951384  41.8018020  24.0419910  29.0798432  40.5035010  24.8204866
  18.5712767  48.9715900  32.8297852  19.2722227  49.6052383  32.9827246
  18.1007882  49.3130632  32.0693491  26.6967163  47.3133850  21.1145759
  26.9727007  47.1990444  22.0239633  25.8271662  46.9151335  21.0757932
  26.3714053  41.5260508  30.6550402  25.7185503  41.7736415  30.0002855
  26.7494433  40.7124646  30.3212880  23.3321227  51.5620201  24.7578573
  23.5143622  50.7441857  25.2206325  24.1554213  51.7787893  24.3203463
  23.6663393  50.4888386  22.0193621  24.1951159  49.9780840  21.4063783
  23.9291612  50.1730916  22.8839154  22.4201626  42.2680319  37.1416440
  21.7442263  42.1674448  37.8118815  23.2429260  42.1119532  37.6052437
  14.1680485  48.5052255  29.7628955  14.7533922  47.7595943  29.8956859
  13.9705324  48.8156212  30.6465619   8.7598140  41.0757855  28.4833398
   8.7982239  40.5421446  29.2770516   8.2538433  40.5493061  27.8644375
  16.1388902  35.9222396  31.9795940  16.2030229  36.7837227  31.5673338
  16.0756023  35.3096398  31.2468299  15.6141175  37.9945528  35.6268974
  16.2413214  37.6122606  36.2406499  14.7569094  37.7759730  35.9924667
  26.0135283  48.4008504  37.2322710  26.5575187  49.0138462  36.7377665
  25.4322128  48.9588082  37.7489723  12.3906718  39.8021958  21.5587329
  12.6860159  38.8932636  21.5054383  11.4894753  39.7809697  21.2368332
  24.2992796  51.5229222  28.3637738  24.1743936  50.7218961  27.8548683
  24.9571887  52.0175415  27.8751708  15.9200965  37.8777954  27.5414878
  15.1987550  38.4913922  27.4022351  16.7094220  38.4135719  27.4631524
  26.3627705  49.3238242  29.9917288  25.4158040  49.2043593  29.9195615
  26.7110478  48.4360740  30.0743549  18.7227278  35.2132381  33.8155530
  19.2461680  35.4594677  34.5781839  18.5039611  36.0452415  33.3958667
  14.1194559  37.4836055  21.6826654  13.7907265  36.6033434  21.5001760
  14.4733930  37.4283724  22.5703044  23.3674138  49.1190958  26.1921640
  23.2199100  48.1907665  26.3729210  24.1927632  49.1411049  25.7078715
  17.2336382  37.7709025  22.0502132  17.5732455  38.2994946  21.3280741
  17.6808503  38.1089431  22.8260699  26.9708260  49.9419517  27.2786513
  27.8954807  49.7362378  27.1410964  26.8023563  49.6935918  28.1875854
  19.9279823  36.1546076  31.5005200  19.5876643  35.3553889  31.9025880
  19.2218829  36.4547787  30.9282033  19.2204529  36.2683647  20.2495425
  19.9412892  36.6464899  19.7459142  18.5969834  36.9872523  20.3530403
  23.3635652  36.9728796  21.1853757  23.5799267  37.8553433  20.8842585
  22.8829719  36.5815009  20.4559399  18.1034874  39.9314509  27.7624502
  17.9579454  40.2454812  28.6548783  17.6260077  40.5499409  27.2095400
  19.9631257  36.9217057  27.8105391  19.9492825  36.0258150  27.4737689
  20.6803685  36.9287720  28.4443677  21.8157387  37.3554397  29.8558519
  21.5575165  38.2771468  29.8542849  21.2842428  36.9584831  30.5458983
  26.7603576  50.4605184  22.6348604  26.9340454  49.8951607  21.8822457
  27.2532467  51.2606079  22.4528094  12.5780536  42.4719853  30.7012163
  12.0334004  43.2479661  30.8332437  13.4559886  42.8190658  30.5431284
  19.3668153  35.8031437  23.0792962  19.4884064  34.8748083  23.2783849
  19.0770195  35.8170123  22.1671277  32.6142967  43.2241607  24.2538904
  33.0574113  42.4748932  23.8558027  31.7369478  43.2151743  23.8712636
  27.7478749  49.7771948  19.7345502  28.4429653  50.3978641  19.9532817
  28.0901899  48.9267300  20.0097880  13.3646558  41.5989749  33.5942320
  12.6228294  41.7472385  34.1806950  13.0439302  41.8598015  32.7309069
  29.6470172  47.2271654  21.2632833  30.1721496  47.5658927  20.5382153
  29.5592524  46.2918669  21.0795968  21.3090220  51.1405728  33.3922710
  21.6177347  50.8954874  34.2645409  22.1065702  51.3452366  32.9041580
  21.3310832  53.2943637  25.6228086  20.8915823  52.8020016  26.3160943
  22.0818949  52.7516605  25.3820162  13.8103171  49.4855178  25.6252715
  14.6361191  49.1858950  25.2451358  13.4597223  48.7162801  26.0742503
  18.7784705  48.8381646  27.6950388  18.1564714  48.1752351  27.3952616
  19.4489571  48.8642778  27.0124036  12.0111776  47.4041505  26.5841648
  11.1743685  46.9763679  26.4025649  11.9835422  47.5973948  27.5212439
  18.8509232  37.3163434  37.2882894  18.8997388  38.1925557  36.9060664
  19.3931746  36.7740827  36.7154537  29.3364078  47.8604558  36.5684031
  28.5459621  47.8428696  36.0288531  29.0997432  48.3992851  37.3233068
  29.4561953  44.7097024  33.8816760  29.5059958  44.5447031  34.8232283
  29.3475876  43.8424283  33.4914641  18.3398211  47.3885570  21.1708849
  18.4886332  48.0721034  20.5175521  19.1464655  47.3690660  21.6858304
  26.7465715  40.6927952  35.1976066  27.6475578  40.5534417  34.9060064
  26.8213690  40.8582407  36.1374244  21.0808520  38.0694807  34.0429253
  20.2111830  38.3628373  33.7711841  21.3168001  38.6535252  34.7636516
  30.9580150  47.1293966  34.1258781  30.6664958  47.4923946  34.9622242
  30.3452281  46.4160974  33.9472113  32.1575832  44.6946845  26.6461352
  32.9922723  45.1336649  26.8098912  32.2934961  44.2185499  25.8269597
  29.2067338  42.2526580  32.5938839  29.6821459  42.4454226  31.7857691
  28.2832903  42.3085766  32.3482223  16.0950844  43.4150747  22.1769918
  15.8496886  42.5113077  22.3750128  16.2646759  43.4167898  21.2349396
  15.3646492  39.1479105  19.6756079  14.6715737  39.2223460  19.0196115
  15.1198244  38.3839449  20.1977596  21.8393617  49.8833700  18.6420596
  21.2667584  50.5023887  18.1891068  22.4126411  50.4333062  19.1760518
  27.9069007  39.1292340  30.8267145  28.8586430  39.2290438  30.8479369
  27.7372457  38.3370609  31.3365229  25.0590877  50.1670850  19.7729178
  25.9921550  50.1016412  19.9762054  24.9714090  51.0027117  19.3143711
  27.6878893  49.4836721  16.7333126  27.6092525  49.1496584  17.6268884
  28.5088560  49.9758489  16.7324598  30.3857085  42.3498460  29.9409445
  30.3533405  41.4114461  30.1269128  30.9957708  42.4282497  29.2075269
  22.2240415  41.2194513  15.9836649  23.1699520  41.0900721  16.0525067
  21.8454660  40.4809175  16.4606077  30.5351573  39.1409503  29.9867728
  30.0190622  38.3567960  29.7997657  31.4191522  38.8128220  30.1514247
  36.2033634  43.4114467  29.0815481  36.9337023  43.1499755  29.6423185
  35.5940580  42.6743189  29.1217549  34.2848932  41.5522329  29.6789933
  33.5582095  41.4178294  29.0706424  33.8696218  41.8599158  30.4846651
  22.1079108  45.2712259  37.4437306  23.0282117  45.4490858  37.6377352
  22.0728691  44.3268304  37.2917005  20.4083333  39.1444489  15.9191534
  19.5014788  38.8477602  15.9954247  20.6859314  38.8474307  15.0525820
  11.3261273  40.4650853  26.3690580  11.0064057  39.6116161  26.0764954
  10.7794701  40.6799431  27.1248548  15.1041181  43.1813294  30.0860087
  15.3227190  44.1130402  30.1048121  15.5166954  42.8221268  30.8714891
  22.0245398  33.6881379  22.0735775  21.2146127  33.3428464  22.4491021
  22.7129815  33.3788923  22.6623387  19.9769046  38.7546499  39.4762836
  19.8765773  39.7040856  39.4074927  19.7590588  38.4264738  38.6038906
  19.1782117  36.0031425  16.0603513  20.0401281  36.3286323  16.3199330
  19.3632461  35.2162920  15.5476579  11.1949533  44.0853764  28.3383702
  10.5013004  43.6707717  27.8253656  11.9422524  44.1274301  27.7417121
  19.8400316  42.1843638  38.2927897  19.3567398  42.9843998  38.4991786
  19.9261255  42.1951583  37.3395341  13.1086276  44.0172018  26.2149717
  13.0856964  44.1159705  25.2631600  13.4186912  44.8637169  26.5366883
  15.7673653  46.0748173  30.3296331  16.7216907  46.0432115  30.2626263
  15.5686177  45.6138797  31.1446557  16.3573036  44.6449289  32.8967129
  17.1765925  45.1393368  32.9201966  16.6309843  43.7281257  32.8684696
  26.1139632  37.0360041  22.2595084  25.2265487  37.3209692  22.0415279
  26.5293621  36.8753805  21.4122361  29.4654168  37.0606562  25.9749423
  30.2414558  37.5503015  26.2474040  28.7402302  37.4864617  26.4321293
  31.9026727  37.7734182  27.0323364  32.4971217  37.5329918  26.3216672
  31.9753310  37.0541312  27.6596900  25.2582845  46.8004716  16.3543104
  25.9618695  47.0054719  16.9700760  24.5345494  47.3681478  16.6192188
  26.0880656  42.5514577  22.4745374  26.0315857  43.0083129  21.6353007
  26.6408998  41.7905262  22.2968217  29.8985461  38.3404309  23.2995494
  29.6422396  37.9400945  24.1303702  29.2738329  39.0548103  23.1745633
  34.2097799  41.0800382  25.8066785  33.6497357  41.1493572  26.5798347
  33.6041303  40.9041367  25.0866282  27.1669543  47.2387245  18.4041564
  28.0015147  46.8068444  18.2219039  27.0053886  47.0669259  19.3318459
  26.8215435  43.7419359  19.7697904  26.7664239  43.5763630  18.8286348
  26.1961490  44.4495391  19.9260093  11.6107950  38.9787423  33.5959326
  12.2566813  38.4686377  34.0846551  11.4025101  39.7156105  34.1702751
  24.1361342  46.0468270  39.0951466  25.0052502  46.2208923  38.7338101
  23.6568093  46.8662687  38.9727196  20.1311560  33.2427468  19.3483222
  20.1190230  34.1869307  19.5051493  21.0234982  33.0597613  19.0542683
  20.0601124  51.9196358  27.4350979  19.1096755  51.9198220  27.3215351
  20.3633610  51.1729093  26.9187013  15.9505441  36.1255040  37.6934340
  16.8136902  35.7691845  37.9037665  15.3770851  35.7868935  38.3809744
  30.3051803  56.4772572  17.7675206  30.5577324  55.9554093  17.0058669
  29.3676362  56.3138717  17.8701889  35.3495086  55.4808350  25.5749949
  36.1358175  55.0627773  25.2240366  35.6133791  56.3854442  25.7431597
  40.7503513  55.4183583  26.4782928  41.4828685  54.8482800  26.7120757
  39.9942869  55.0305184  26.9189433  38.2728934  49.1305158  30.9377536
  37.9412258  50.0000568  30.7138751  37.6774547  48.8141442  31.6171567
  32.0085120  52.8700725  18.6707619  32.1759522  53.7380961  19.0378090
  31.8182289  53.0328006  17.7468908  38.1657597  53.8500244  28.0170886
  37.2574474  53.7815652  27.7229647  38.1145193  54.3272189  28.8452712
  31.9874341  55.3258382  19.6554285  31.8673966  55.7715433  20.4939766
  31.2926929  55.6743700  19.0967824  32.2398463  55.2689889  35.9605784
  31.4631797  55.8283809  35.9508648  32.8789026  55.7546672  36.4820654
  40.0319243  52.0516682  29.7948760  39.3893624  52.3449215  29.1488555
  39.5274172  51.9369602  30.6001957  37.6859407  55.7979855  20.4834619
  38.5977263  56.0307242  20.3082317  37.1769054  56.3816899  19.9209698
  32.3231245  55.1577090  31.4929469  33.1692440  55.5816503  31.6364118
  32.2629882  54.5010714  32.1868032  35.4730690  52.8181458  33.1510643
  35.2291622  53.5723519  32.6144918  35.7490621  53.1966806  33.9857890
  35.0295382  51.9737891  28.7324480  34.1679861  52.2719145  29.0241218
  35.0557817  52.1908290  27.8005513  30.7825837  56.6403234  21.9487851
  31.4849881  57.0924278  22.4161777  30.4506466  55.9987053  22.5767744
  29.2306199  55.2314991  36.3239061  28.6004859  55.9131272  36.5574457
  29.1242287  55.1198072  35.3792199  28.5086942  49.5335757  38.6864312
  28.1153887  48.9801955  39.3611956  29.3253082  49.8446335  39.0770829
  31.4254903  50.9493636  36.2784568  32.1664616  51.5500789  36.1989031
  31.6572825  50.2071274  35.7202611  35.3712066  46.9774739  30.5548850
  35.0276335  47.8676380  30.4787960  35.7391028  46.7876396  29.6918435
  35.3362348  56.9683350  19.0621285  34.8208972  57.7387954  19.3009672
  35.0639657  56.2948486  19.6854346  32.9209459  51.8133051  24.1206523
  32.0651056  51.4239901  23.9412162  33.3336411  51.8925011  23.2606309
  34.4508606  49.3479394  28.5198083  33.9473401  49.3109529  27.7065888
  34.7439213  50.2572137  28.5794740  30.6951492  49.4318124  27.5264265
  31.5604489  49.2360932  27.1670154  30.7629001  49.2028475  28.4533622
  35.1248651  54.8410442  20.8881066  34.8198787  55.1556591  21.7391209
  36.0779094  54.9191862  20.9308399  28.3013811  51.6620331  24.8980632
  28.8757563  51.4395513  24.1653825  28.8884793  51.7309026  25.6509233
  28.6283398  53.6924793  18.9176517  27.7920710  54.0299479  19.2385792
  28.4888168  53.5573772  17.9803654  30.6036479  48.5361580  23.6255701
  29.9500891  48.2210598  23.0012316  30.5616953  47.9137321  24.3515524
  33.8374219  55.0243514  27.9503349  32.9196780  55.2458461  27.7925037
  34.2534363  55.0989824  27.0915056  34.6209267  56.4234930  23.0806029
  35.3681086  56.9356327  22.7713151  34.8900856  56.1018982  23.9410422
  37.0688104  53.4592046  25.0624818  36.3310861  52.9469432  25.3935061
  37.3214877  53.0192427  24.2508095  37.1699731  46.2368298  25.6566587
  37.4758608  45.3765661  25.3692503  37.8952336  46.8285918  25.4565581
  31.4420811  56.5322091  26.1642779  31.4969421  55.5795927  26.0885255
  30.6312013  56.6881530  26.6484077  29.3813171  55.1499151  23.9233157
  28.5681036  55.4493321  24.3298350  29.8772165  54.7554839  24.6407640
  34.9787383  55.6140975  32.7548051  35.3336770  55.8412448  33.6142517
  35.6259514  55.9459352  32.1325307  28.8727246  52.7217506  29.5394392
  29.5126625  52.5806265  28.8417356  28.0404776  52.4352020  29.1632994
  25.8755862  52.6917831  24.3167379  26.1362679  53.6063164  24.2076540
  26.6973034  52.2242274  24.4663992  27.3480787  54.1055588  31.4866204
  28.0203841  53.8972950  30.8378853  26.5210574  53.9077674  31.0471436
  33.2506359  50.7317529  33.5031865  32.6034274  51.4307479  33.4096341
  34.0207375  51.1653673  33.8708113  29.0919519  54.0783369  33.5547960
  28.5556876  53.6274107  34.2069556  28.5036228  54.2129277  32.8118424
  28.5021778  53.5372020  16.1174424  27.6251245  53.4160821  15.7536670
  28.9779531  52.7458098  15.8653312  24.8258640  53.2139376  30.6400954
  24.7416829  52.6065046  29.9051364  24.0041347  53.7048395  30.6410451
  34.9982354  51.6992940  26.0071150  35.4951054  50.9462902  25.6872220
  34.2269336  51.7357256  25.4414359  31.5817323  53.8410323  25.7342834
  31.2115111  53.2881363  26.4223740  32.0776416  53.2368456  25.1817834
  37.4401349  48.6662533  28.1550508  36.5264429  48.8966760  28.3232715
  37.8694451  48.7500977  29.0064541  37.2107808  56.8552425  30.6550402
  36.5579258  57.1028333  30.0002855  37.5888188  56.0416563  30.3212880
  33.2595381  57.5972236  37.1416440  32.5836018  57.4966366  37.8118815
  34.0823015  57.4411450  37.6052437  26.9782657  51.2514314  31.9795940
  27.0423983  52.1129144  31.5673338  26.9149777  50.6388315  31.2468299
  26.4534929  53.3237446  35.6268974  27.0806968  52.9414523  36.2406499
  25.5962848  53.1051648  35.9924667  26.7594719  53.2069872  27.5414878
  26.0381305  53.8205839  27.4022351  27.5487975  53.7427637  27.4631524
  29.5621033  50.5424298  33.8155530  30.0855434  50.7886595  34.5781839
  29.3433366  51.3744333  33.3958667  24.9588314  52.8127973  21.6826654
  24.6301020  51.9325352  21.5001760  25.3127684  52.7575642  22.5703044
  28.0730137  53.1000943  22.0502132  28.4126209  53.6286864  21.3280741
  28.5202257  53.4381349  22.8260699  30.7673578  51.4837993  31.5005200
  30.4270398  50.6845806  31.9025880  30.0612584  51.7839704  30.9282033
  31.4190049  48.5687306  29.9532523  32.2416119  48.0947784  29.8311414
  31.6628113  49.3477790  30.4531210  30.0598284  51.5975564  20.2495425
  30.7806646  51.9756817  19.7459142  29.4363588  52.3164441  20.3530403
  34.2029407  52.3020713  21.1853757  34.4193021  53.1845351  20.8842585
  33.7223474  51.9106927  20.4559399  28.9428628  55.2606426  27.7624502
  28.7973209  55.5746730  28.6548783  28.4653832  55.8791327  27.2095400
  30.8025011  52.2508974  27.8105391  30.7886580  51.3550068  27.4737689
  31.5197439  52.2579638  28.4443677  32.6551142  52.6846315  29.8558519
  32.3968920  53.6063385  29.8542849  32.1236182  52.2876749  30.5458983
  30.2061907  51.1323355  23.0792962  30.3277818  50.2040001  23.2783849
  29.9163949  51.1462041  22.1671277  33.0753097  48.8178265  26.2159681
  33.0974794  48.8817598  25.2611661  33.4921156  47.9782774  26.4100188
  29.6902987  52.6455352  37.2882894  29.7391142  53.5217475  36.9060664
  30.2325501  52.1032745  36.7154537  37.5859470  56.0219870  35.1976066
  38.4869332  55.8826335  34.9060064  37.6607444  56.1874325  36.1374244
  31.9202275  53.3986724  34.0429253  31.0505584  53.6920291  33.7711841
  32.1561755  53.9827169  34.7636516  34.6241309  49.6166341  31.5594673
  35.1423253  50.3527368  31.2341162  34.2696442  49.9230335  32.3941432
  26.2040246  54.4771023  19.6756079  25.5109491  54.5515378  19.0196115
  25.9591998  53.7131366  20.1977596  34.8753903  46.0366624  27.0795570
  35.1555657  45.3689813  27.7055996  35.6604510  46.2295720  26.5670234
  38.7462761  54.4584258  30.8267145  39.6980184  54.5582356  30.8479369
  38.5766212  53.6662526  31.3365229  36.7677141  51.5439841  31.0126546
  36.1727073  51.8244854  30.3173034  36.4826838  52.0333742  31.7843287
  33.0634170  56.5486431  15.9836649  34.0093275  56.4192639  16.0525067
  32.6848415  55.8101092  16.4606077  41.3745328  54.4701421  29.9867728
  40.8584376  53.6859878  29.7997657  42.2585276  54.1420138  30.1514247
  39.0356055  48.2142437  25.9463540  38.8380876  47.9057525  26.8306872
  39.6455760  48.9404076  26.0761470  31.2477087  54.4736407  15.9191534
  30.3408543  54.1769520  15.9954247  31.5253068  54.1766225  15.0525820
  32.8639153  49.0173297  22.0735775  32.0539881  48.6720382  22.4491021
  33.5523570  48.7080840  22.6623387  34.7929701  48.0951344  23.6960072
  35.3460740  48.5146797  24.3550095  35.0299788  47.1687092  23.7383028
  30.8162800  54.0838417  39.4762836  30.7159527  55.0332774  39.4074927
  30.5984342  53.7556656  38.6038906  30.0175872  51.3323342  16.0603513
  30.8795036  51.6578241  16.3199330  30.2026216  50.5454838  15.5476579
  38.1708508  50.2051869  23.2038736  37.5907177  50.8636673  22.8216788
  37.9044441  49.3829213  22.7926153  36.6212075  49.6056926  25.4060056
  37.1211853  49.7173461  24.5974375  37.2647683  49.3017979  26.0460865
  36.9533386  52.3651959  22.2595084  36.0659241  52.6501610  22.0415279
  37.3687375  52.2045722  21.4122361  40.3047922  52.3898480  25.9749423
  41.0808313  52.8794932  26.2474040  39.5796057  52.8156534  26.4321293
  42.7420481  53.1026099  27.0323364  43.3364972  52.8621835  26.3216672
  42.8147065  52.3833230  27.6596900  36.9274410  57.8806495  22.4745374
  36.8709611  58.3375046  21.6353007  37.4802752  57.1197180  22.2968217
  40.7379216  53.6696227  23.2995494  40.4816150  53.2692863  24.1303702
  40.1132084  54.3840021  23.1745633  30.9705315  48.5719385  19.3483222
  30.9583985  49.5161225  19.5051493  31.8628737  48.3889531  19.0542683
  34.7857434  45.1662162  23.6029159  34.0189830  44.6120649  23.7485841
  35.1968139  45.2384031  24.4643310  26.7899195  51.4546958  37.6934340
  27.6530657  51.0983763  37.9037665  26.2164606  51.1160852  38.3809744
  14.1166310   4.1035184  15.2242048  14.7544720   3.9841931  14.5205388
  13.9987153   5.0516028  15.2830000  11.4075799   5.2097463  21.1189778
  11.3964440   4.8150262  20.2470282  11.5696439   4.4763536  21.7123549
   8.1283060   7.9934575  20.0668962   7.8372926   8.8980206  19.9515628
   8.7640045   8.0351103  20.7813031   9.0539267   5.3711424  16.6570322
   9.6502840   5.1467446  15.9427284   9.1114239   4.6296169  17.2595769
  19.0716006   1.7661871  13.2028234  19.8041178   1.1961087  13.4366064
  18.3155361   1.3783471  13.6434740  13.0872946   7.6795991  17.0618756
  12.7873669   8.5821030  16.9534563  12.7424005   7.4128174  17.9139908
   8.0693725  14.4440311  10.0289723   7.9917755  15.3948136  10.1078204
   7.4655369  14.0986184  10.6864650  10.5610955   1.6168177  22.6851090
   9.7844289   2.1762097  22.6753955  11.2001518   2.1024959  23.2065960
  18.3531736  -1.6005031  16.5194067  17.7106116  -1.3072498  15.8733861
  17.8486664  -1.7152110  17.3247263   8.8157327   4.4253630  22.2469057
   9.5572012   4.9638674  21.9703881   8.1094313   5.0519919  22.4040609
  14.2912667   6.5682770  20.8441219  14.6996023   6.1265181  20.0995851
  13.5689929   5.9935398  21.0975412  14.6141482   7.1283961  14.5993508
  13.9850344   7.2929675  13.8969575  14.2267144   7.5425571  15.3704472
  18.4930714   8.0638399  11.9537871  17.8081752   8.4437300  11.4034905
  18.5774563   8.6733725  12.6869819  13.7943182  -0.8340255  19.8755949
  13.5504114  -0.0798194  19.3390225  14.0703113  -0.4554907  20.7103196
  15.7481645   5.7098358  18.5533215  15.9598540   6.3530118  17.8767596
  15.7011393   4.8760674  18.0855145   7.0593525   6.4129851  14.8023356
   7.6294882   6.8417119  14.1640840   7.6501636   6.1312435  15.5007542
  16.8627473   8.5870313  16.7255572  17.6844917   8.1850501  16.4438254
  16.8589876   8.4838547  17.6771688  10.6284077   8.1354357  18.8816283
  10.6928509   8.5974764  19.7174455   9.9195000   7.5051721  19.0098593
  24.9533466   4.9309062  13.0740544  24.1997175   4.3616460  12.9184548
  25.0881007   4.8971726  14.0211178  11.9700571  10.4246031  22.8795605
  11.5264425   9.6382409  22.5616510  12.6317784  10.6125181  22.2139496
   6.7287692  11.9541832  17.4056284   7.2795117  11.8258896  16.6333278
   5.8899168  12.2536721  17.0551176  14.0681809  10.7048830  20.9077006
  14.0500284  11.5257712  20.4157276  14.9901729  10.5802906  21.1327148
  10.5254863   8.2192960  21.7500515  11.0583200   7.4581248  21.5199823
   9.9968944   7.9266612  22.4924669  16.8700422   5.5427973  14.3786373
  16.2124096   6.2327234  14.4666502  17.6740821   5.9324405  14.7220359
  16.4467677   8.8778347  10.5569457  15.9930004   8.0369257  10.6134648
  15.8161643   9.5139745  10.8944238  14.8900616  10.7154844  11.4919276
  15.1823590  11.2759901  10.7731641  15.3999236  11.0083405  12.2472435
   9.8534241  11.4935195  12.5812729   9.8110420  11.7196041  11.6521261
  10.7696940  11.2598569  12.7298530  13.2999875   1.9619262  19.4793358
  13.6549263   2.1890736  20.3387824  13.9472006   2.2937639  18.8570613
  19.0566991   7.1514225  15.1953959  19.4903498   7.0589514  16.0437013
  19.7698572   7.1271726  14.5573974  12.7894886  10.7516319  16.7287059
  12.8431909  11.3207256  17.4964775  11.9209668  10.9218204  16.3641096
  19.9182541   7.1937926  17.7286844  20.1118431   8.0983736  17.9746119
  19.8183159   6.7345345  18.5625429  14.9797650   7.3444669  23.3027725
  14.8283156   7.1155220  22.3857808  14.9702329   8.3015270  23.3159070
  11.7482986   4.9176581  18.2873991  12.6775046   5.0687741  18.1142958
  11.3274016   5.0060602  17.4322637  10.5471318   8.9427246  16.0572529
  10.4082403   8.5746030  16.9298467   9.7585914   9.4574885  15.8856486
  12.0976533   8.3208849  13.4461366  11.7626366   8.2809619  14.3419016
  11.5980479   7.6553564  12.9731777   8.7003078   3.4396438  18.4597627
   9.4102696   2.7989630  18.4184246   8.6572386   3.6909333  19.3823808
  16.6889856  10.3763791  21.3804206  16.6302402   9.6923011  20.7134789
  17.0909375  11.1182781  20.9284832   5.7080555  17.1925705  14.1737925
   5.9477153  17.8244229  14.8516944   4.8649752  16.8413745  14.4603285
  16.6907263   8.3403375  19.6118186  15.8034042   8.0029297  19.7344585
  17.2605815   7.6086406  19.8486951  10.2208417  13.0004828  16.5779429
  10.1478588  13.8059799  17.0898734   9.7785810  13.1996793  15.7527451
  10.0098197  12.2376598  10.0882251   9.2265718  12.7798278  10.1820475
  10.7090942  12.7550577  10.4876492  21.1724604   3.7511593  14.3734748
  21.1614480   4.6336308  14.0028681  20.3041983   3.3983143  14.1789285
  12.6807100  12.8991662  18.7337588  13.3935073  13.5339126  18.6613489
  12.1897129  12.9955528  17.9177590   7.7319014  10.6486105  19.5543159
   8.4328473  11.2822588  19.7072553   7.2614129  10.9900837  18.7938798
  15.5320300   3.2030712  17.3795709  14.8791750   3.4506620  16.7248162
  15.9100680   2.3894851  17.0458186  12.4927474  13.2390406  11.4823879
  12.6749868  12.4212062  11.9451632  13.3160460  13.4558098  11.0448769
  11.5807873   3.9450524  23.8661746  10.9048510   3.8444653  24.5364121
  12.4035507   3.7889737  24.3297743   3.3286732  10.1822460  16.4874261
   3.9140169   9.4366148  16.6202166   3.1311570  10.4926417  17.3710925
   6.1825387  13.2173707  11.5036704   5.5135762  13.7019835  11.0200744
   6.0438257  13.4642928  12.4180082  10.3230656  15.2517451  18.1019362
  10.8748964  15.4149072  18.8668447  10.6636849  15.8421889  17.4299387
  15.1741530  10.0778708  23.9568017  15.7181434  10.6908667  23.4622971
  14.5928375  10.6358287  24.4735030  13.4599043  13.1999427  15.0883044
  13.3350183  12.3989166  14.5793990  14.1178134  13.6945620  14.5997014
  15.5233951  11.0008447  16.7162594  14.5764287  10.8813798  16.6440921
  15.8716725  10.1130945  16.7988856  12.5280385  10.7961163  12.9166947
  12.3805347   9.8677870  13.0974517  13.3533878  10.8181254  12.4324022
  16.1314507  11.6189722  14.0031819  17.0561054  11.4132583  13.8656271
  15.9629810  11.3706123  14.9121161  15.9209823  12.1375389   9.3593911
  16.0946700  11.5721811   8.6067763  16.4138714  12.9376284   9.1773401
  21.7749214   4.9011812  10.9784211  22.2180360   4.1519137  10.5803334
  20.8975724   4.8921948  10.5957943  10.4696467  12.8175933  20.1168017
  10.7783594  12.5725079  20.9890716  11.2671949  13.0222571  19.6286887
  10.4917079  14.9713842  12.3473393  10.0522069  14.4790221  13.0406250
  11.2425196  14.4286810  12.1065468   7.9390951  10.5151851  14.4195695
   7.3170961   9.8522556  14.1197923   8.6095818  10.5412983  13.7369343
  18.4970324   9.5374763  23.2929338  17.7065868   9.5198901  22.7533837
  18.2603679  10.0763056  24.0478374  18.6168200   6.3867229  20.6062066
  18.6666204   6.2217236  21.5477589  18.5082123   5.5194488  20.2159947
  15.9071962   2.3698157  21.9221373  16.8081825   2.2304622  21.6305371
  15.9819936   2.5352612  22.8619551  20.1186396   8.8064170  20.8504088
  19.8271205   9.1694151  21.6867549  19.5058528   8.0931179  20.6717420
  21.3182079   6.3717050  13.3706658  22.1528970   6.8106854  13.5344219
  21.4541207   5.8955703  12.5514904  18.3673585   3.9296785  19.3184146
  18.8427706   4.1224431  18.5102997  17.4439150   3.9855971  19.0727530
  17.0675254   0.8062545  17.5512452  18.0192677   0.9060643  17.5724676
  16.8978704   0.0140814  18.0610536  19.5463331   4.0268665  16.6654751
  19.5139652   3.0884666  16.8514435  20.1563955   4.1052702  15.9320576
  19.6957820   0.8179708  16.7113034  19.1796869   0.0338165  16.5242963
  20.5797768   0.4898425  16.8759554  25.3639881   5.0884672  15.8060788
  26.0943270   4.8269960  16.3668491  24.7546827   4.3513394  15.8462856
  23.4455178   3.2292534  16.4035239  22.7188342   3.0948499  15.7951731
  23.0302465   3.5369363  17.2091957  11.2685355   6.9482464  24.1682612
  12.1888364   7.1261063  24.3622659  11.2334938   6.0038509  24.0162311
   9.0006563   3.8613843  25.0173204   8.5173644   4.6614203  25.2237093
   9.0867502   3.8721788  24.0640648   4.9279900   7.7518378  17.0541638
   5.8823154   7.7202320  16.9871569   4.7292424   7.2909002  17.8691864
   5.5179282   6.3219494  19.6212435   6.3372171   6.8163573  19.6447273
   5.7916090   5.4051462  19.5930003  21.0632973  -0.5495614  13.7568671
  21.6577464  -0.7899878  13.0461979  21.1359557  -1.2688483  14.3842207
   3.2830129  13.2937997  14.0711836   3.1484597  12.5338398  13.5049834
   2.8662191  14.0178897  13.6040624  23.3704046   2.7570587  12.5312092
  22.8103604   2.8263777  13.3043654  22.7647549   2.5811572  11.8111588
   6.4399255  14.1907314  14.2830278   6.3231639  15.1352747  14.1808968
   5.6191701  13.8880876  14.6716077  13.2967589   7.7238475  25.8196773
  14.1658748   7.8979128  25.4583408  12.8174340   8.5432892  25.6972502
   7.4653769  14.8435576  17.4986207   8.3681016  14.8759187  17.8152702
   7.2391139  13.9136027  17.5132542   9.2207371  13.5966563  14.1596285
   8.2703002  13.5968424  14.0460658   9.5239857  12.8499297  13.6432320
  24.9560064  19.4327101  15.2242048  25.5938474  19.3133849  14.5205388
  24.8380907  20.3807945  15.2830000  21.7649771  19.3854529  15.1603572
  21.4268282  19.2695594  14.2724107  22.6339539  18.9845694  15.1404579
  17.6236586  21.2390006  11.1500463  17.0601452  21.1479943  10.3816751
  17.5088982  20.4189910  11.6302956  22.2469554  20.5389381  21.1189778
  22.2358195  20.1442179  20.2470282  22.4090193  19.8055454  21.7123549
  15.1701018  22.7341197  13.9884684  15.9622310  22.3932022  13.5730983
  15.4097669  22.8436172  14.9086837  23.2036145  24.9060973   6.4614928
  22.5524125  25.4915054   6.0748942  23.9980508  25.4367168   6.5209966
  17.1291772  21.9950111   6.8602063  17.9022648  21.4479098   6.7214938
  17.4817171  22.8594360   7.0716524  18.9676815  23.3226493  20.0668962
  18.6766681  24.2272124  19.9515628  19.6033799  23.3643021  20.7813031
  19.8933022  20.7003341  16.6570322  20.4896594  20.4759364  15.9427284
  19.9507993  19.9588087  17.2595769  19.4658050  18.1542777   4.4920512
  19.7183571  17.6324298   3.7303975  18.5282609  17.9908922   4.5947196
  24.5101333  17.1578555  12.2995256  25.2964422  16.7397978  11.9485673
  24.7740037  18.0624647  12.4676904  24.6811410  22.5951405   6.9983913
  24.0457243  22.6686032   7.7104817  24.3508817  23.1845004   6.3202992
  29.9109760  17.0953788  13.2028234  30.6434932  16.5253005  13.4366064
  29.1549116  16.7075389  13.6434740  19.1854339  20.0570883   6.6944887
  19.0690597  19.3815786   7.3625972  19.2956599  19.5703257   5.8777040
  21.5285880  19.5181030  10.3991577  21.1644087  18.9911651  11.1104498
  22.3852996  19.1279499  10.2258062  27.4335180  10.8075362  17.6622843
  27.1018505  11.6770773  17.4384058  26.8380794  10.4911646  18.3416873
  21.1691367  14.5470930   5.3952925  21.3365769  15.4151166   5.7623396
  20.9788536  14.7098211   4.4714214  23.9266700  23.0087908  17.0618756
  23.6267423  23.9112947  16.9534563  23.5817760  22.7420092  17.9139908
  17.3779181  19.4601705  13.0955460  16.4529678  19.3277919  13.3033152
  17.6263595  20.2395924  13.5925402  27.3263844  15.5270449  14.7416193
  26.4180721  15.4585857  14.4474954  27.2751440  16.0042394  15.5698018
  21.1480588  17.0028587   6.3799592  21.0280213  17.4485638   7.2185072
  20.4533176  17.3513905   5.8213130  14.7387993  19.1034979  13.9299249
  14.8680374  19.3569458  14.8438661  14.0585444  19.6962687  13.6103904
  18.9087480  29.7732229  10.0289723  18.8311509  30.7240054  10.1078204
  18.3049123  29.4278101  10.6864650  21.4004710  16.9460094  22.6851090
  20.6238044  17.5054014  22.6753955  22.0395273  17.4316877  23.2065960
  29.1925490  13.7286887  16.5194067  28.5499870  14.0219420  15.8733861
  28.6880419  13.6139807  17.3247263  26.8465654  17.4750060   7.2079926
  27.7583510  17.7077447   7.0327624  26.3375301  18.0587104   6.6455005
  19.6551082  19.7545548  22.2469057  20.3965766  20.2930592  21.9703881
  18.9488067  20.3811836  22.4040609  25.1306422  21.8974688  20.8441219
  25.5389778  21.4557099  20.0995851  24.4083683  21.3227316  21.0975412
  21.4837492  16.8347295  18.2174776  22.3298687  17.2586708  18.3609425
  21.4236129  16.1780919  18.9113339  25.4535236  22.4575879  14.5993508
  24.8244099  22.6221593  13.8969575  25.0660898  22.8717488  15.3704472
  29.3324468  23.3930316  11.9537871  28.6475506  23.7729218  11.4034905
  29.4168317  24.0025643  12.6869819  24.6336937  14.4951663  19.8755949
  24.3897869  15.2493724  19.3390225  24.9096867  14.8737011  20.7103196
  26.5875400  21.0390276  18.5533215  26.7992295  21.6822035  17.8767596
  26.5405148  20.2052592  18.0855145  24.1901629  13.6508096  15.4569787
  23.3286108  13.9489350  15.7486525  24.2164063  13.8678495  14.5250820
  21.0063198  22.1950287  11.8643593  21.4701544  22.4737990  11.0748215
  20.7419996  21.2933731  11.6816683  17.8987279  21.7421768  14.8023356
  18.4688636  22.1709037  14.1640840  18.4895391  21.4604353  15.5007542
  19.9432084  18.3173439   8.6733158  20.6456127  18.7694483   9.1407084
  19.6112713  17.6757258   9.3013051  18.3912446  16.9085196  23.0484367
  17.7611106  17.5901477  23.2819764  18.2848534  16.7968277  22.1037505
  13.6857418  16.5756992  13.9750291  12.8956472  16.8314520  13.4990402
  14.1768665  17.3905330  14.0802332  15.6372163  16.9401571  10.9333768
  14.8403327  17.0520265  11.4517264  15.4097756  17.2788223  10.0674659
  21.4677831  23.4646274  18.8816283  21.5322264  23.9266681  19.7174455
  20.7588755  22.8343639  19.0098593  11.9695121  16.8287482  16.4065282
  12.2203159  17.7134492  16.6722858  12.5054669  16.6492084  15.6340374
  35.7927221  20.2600979  13.0740544  35.0390929  19.6908377  12.9184548
  35.9274762  20.2263644  14.0211178  21.1825849  25.1314382   8.7495263
  21.0471523  25.9765917   9.1780111  21.7235661  25.3333659   7.9861197
  17.6693188  11.2105962  25.4109618  17.2760134  10.6572160  26.0857262
  18.4859329  11.5216540  25.8016136  14.6355246  22.6489820   9.3223188
  15.1479767  23.4433070   9.4728753  15.2877959  21.9516110   9.2556790
  16.4450131  25.7655576  11.4045941  16.6216759  26.6873541  11.2166925
  17.2406964  25.4513995  11.8340321  20.5861149  12.6263841  23.0029875
  21.3270863  13.2270994  22.9234337  20.8179072  11.8841478  22.4447917
  15.7302487  17.8120208  21.2808104  15.6156002  16.9105465  21.5815203
  14.8747005  18.0583905  20.9292921  17.5681446  27.2833750  17.4056284
  18.1188871  27.1550813  16.6333278  16.7292922  27.5828639  17.0551176
  21.3648617  23.5484878  21.7500515  21.8976954  22.7873166  21.5199823
  20.8362698  23.2558529  22.4924669  24.5318312   8.6544944  17.2794156
  24.1882582   9.5446585  17.2033267  24.8997275   8.4646601  16.4163741
  12.6004163  20.9778474  10.0982759  13.4379385  21.3875482   9.8816466
  12.7782431  20.0377916  10.0682952  24.4968595  18.6453555   5.7866592
  23.9815218  19.4158159   6.0254979  24.2245903  17.9718691   6.4099653
  22.0815706  13.4903255  10.8451830  21.2257302  13.1010106  10.6657469
  22.4942658  13.5695216   9.9851615  23.6114853  11.0249599  15.2443390
  23.1079648  10.9879734  14.4311195  23.9045460  11.9342341  15.3040046
  19.8557739  11.1088328  14.2509571  20.7210735  10.9131137  13.8915461
  19.9235247  10.8798680  15.1778928  29.4702869  21.3985909   7.7219765
  28.6932312  21.0597069   7.2774927  30.1494350  21.4038533   7.0474730
  24.2854898  16.5180647   7.6126373  23.9805034  16.8326796   8.4636516
  25.2385340  16.5962067   7.6553706  22.7301330  22.6770870   9.2619327
  22.2022692  21.9423630   8.9492564  22.2288833  23.4545546   9.0159295
  27.7094176  20.8719891  14.3786373  27.0517850  21.5619152  14.4666502
  28.5134575  21.2616323  14.7220359  17.4620058  13.3390536  11.6225938
  18.0363810  13.1165718  10.8899131  18.0491040  13.4079231  12.3754540
  26.5199635  19.2264263  12.4290315  27.0331517  19.8594255  12.9312025
  27.1700859  18.6265459  12.0633675  19.7642725  10.2131785  10.3501008
  19.1107138   9.8980802   9.7257622  19.7223199   9.5907526  11.0760831
  20.8753930  20.4951080   2.2654300  19.9680992  20.2640334   2.4645449
  21.3724962  19.6988700   2.4528281  23.7822009  29.2048588   5.1850986
  23.1083708  29.5080284   5.7935944  24.1687831  30.0077668   4.8356443
  22.9980466  16.7013719  14.6748655  22.0803027  16.9228666  14.5170343
  23.4140609  16.7760029  13.8160363  23.7815513  18.1005135   9.8051336
  24.5287332  18.6126532   9.4958458  24.0507103  17.7789187  10.6655729
  22.0542164  20.5963675   6.7878290  21.1453383  20.3122708   6.8850760
  22.0837247  21.0162754   5.9281597  27.2861431  24.2070265  10.5569457
  26.8323758  23.3661175  10.6134648  26.6555398  24.8431663  10.8944238
  26.2294351  15.1362251  11.7870125  25.4917107  14.6239637  12.1180367
  26.4821124  14.6962632  10.9753402  25.7294370  26.0446761  11.4919276
  26.0217345  26.6051819  10.7731641  26.2392991  26.3375322  12.2472435
  26.3305978   7.9138503  12.3811894  26.6364855   7.0535866  12.0937809
  27.0558583   8.5056123  12.1810888  12.6230334  18.3169189  10.7693492
  12.4254734  17.7238550  10.0444559  12.0676998  18.0121400  11.4869431
  20.6027058  18.2092296  12.8888085  20.6575667  17.2566132  12.8130562
  19.7918260  18.3651735  13.3729384  21.7518251  22.1372419   4.1266368
  21.3137681  21.4208278   3.6672006  22.4928692  22.3648534   3.5651460
  18.5419418  16.8269356  10.6478464  17.7287283  17.1263526  11.0543656
  19.0378412  16.4325044  11.3652946  20.6927995  26.8227113  12.5812729
  20.6504174  27.0487959  11.6521261  21.6090694  26.5890487  12.7298530
  24.1393629  17.2911180  19.4793358  24.4943017  17.5182653  20.3387824
  24.7865761  17.6229557  18.8570613  29.8691366  20.4129616  10.1842687
  29.7309265  20.6031212   9.2563876  29.5127585  21.1748999  10.6410738
  18.0333492  14.3987711  16.2639699  18.6732872  14.2576470  15.5662662
  17.2011023  14.1122225  15.8878301  29.8960746  22.4806143  15.1953959
  30.3297252  22.3881432  16.0437013  30.6092327  22.4563643  14.5573974
  18.8093796  23.6990142  12.3774691  19.6034395  23.2040462  12.1757266
  18.0985489  23.1708005  12.0142397  23.6288641  26.0808237  16.7287059
  23.6825663  26.6499173  17.4964775  22.7603422  26.2510122  16.3641096
  15.1176560  17.8433223   8.4534444  14.1874148  17.7817679   8.6704406
  15.2134032  17.3209176   7.6571085  15.0362109  14.3688036  11.0412686
  15.2968926  15.2833369  10.9321846  15.8579281  13.9012479  11.1909299
  16.5087034  15.7825793  18.2111510  17.1810088  15.5743155  17.5624159
  15.6816821  15.5847879  17.7716743  30.7576295  22.5229844  17.7286844
  30.9512185  23.4275654  17.9746119  30.6576914  22.0637263  18.5625429
  22.4112606  12.4087734  20.2277171  21.7640521  13.1077684  20.1341648
  23.1813622  12.8423878  20.5953419  22.5876740  20.2468499  18.2873991
  23.5168800  20.3979659  18.1142958  22.1667770  20.3352520  17.4322637
  21.3865072  24.2719164  16.0572529  21.2476158  23.9037948  16.9298467
  20.5979668  24.7866803  15.8856486  21.9813224  29.3728260   7.3998065
  22.1564980  28.9016303   8.2143688  21.2946012  29.9994026   7.6279326
  22.9370287  23.6500766  13.4461366  22.6020120  23.6101536  14.3419016
  22.4374233  22.9845482  12.9731777  16.9114531  19.0568396  18.9713948
  16.7734329  18.3248635  19.5725487  17.8219455  18.9677296  18.6898135
  25.8729479  20.9956801   3.7198426  25.2558650  20.2703629   3.6231479
  25.4045968  21.7566161   3.3765500  19.5396832  18.7688356  18.4597627
  20.2496451  18.1281548  18.4184246  19.4966140  19.0201250  19.3823808
  18.2525766  15.7553573  20.2793267  17.7163123  15.3044312  20.9314863
  17.6642474  15.8899482  19.5363731  16.5474310  32.5217623  14.1737925
  16.7870908  33.1536147  14.8516944  15.7043506  32.1705663  14.4603285
   9.1830165  20.0019385  12.9361237   9.8701205  19.6881115  12.3482253
   9.0278294  20.9060749  12.6628489  13.9864887  14.8909581  17.3646261
  13.9023076  14.2835251  16.6296671  13.1647594  15.3818599  17.3655757
  21.0602171  28.3296745  16.5779429  20.9872343  29.1351717  17.0898734
  20.6179564  28.5288711  15.7527451  20.8491951  27.5668515  10.0882251
  20.0659473  28.1090195  10.1820475  21.5484696  28.0842495  10.4876492
  24.1588601  13.3763145  12.7316456  24.6557301  12.6233107  12.4117526
  23.3875583  13.4127461  12.1659666  32.0118359  19.0803510  14.3734748
  32.0008235  19.9628226  14.0028681  31.1435738  18.7275061  14.1789285
  25.2418382  22.1334832  10.3054880  24.3074661  22.2536294  10.1359584
  25.4195050  21.2307299  10.0414889  20.7423570  15.5180528  12.4588141
  20.3721357  14.9651568  13.1469046  21.2382662  14.9138661  11.9063141
  28.6290933  17.9752151  10.8404914  29.0951385  18.8080143  10.7665216
  29.0798434  17.5097133  11.5450172  18.5712768  25.9778023  19.5543159
  19.2722228  26.6114506  19.7072553  18.1007883  26.3192754  18.7938798
  26.6967164  24.3195972   7.8391066  26.9727008  24.2052567   8.7484940
  25.8271663  23.9213457   7.8003239  26.6007596  10.3432738  14.8795815
  25.6870676  10.5736965  15.0478022  27.0300697  10.4271182  15.7309847
  26.3714054  18.5322630  17.3795709  25.7185505  18.7798538  16.7248162
  26.7494434  17.7186768  17.0458186  23.3321228  28.5682323  11.4823879
  23.5143623  27.7503979  11.9451632  24.1554214  28.7850016  11.0448769
  23.6663394  27.4950508   8.7438928  24.1951160  26.9842963   8.1309090
  23.9291613  27.1793039   9.6084461  22.4201627  19.2742441  23.8661746
  21.7442264  19.1736571  24.5364121  23.2429261  19.1181655  24.3297743
  14.1680486  25.5114378  16.4874261  14.7533923  24.7658066  16.6202166
  13.9705325  25.8218334  17.3710925  17.0219142  28.5465625  11.5036704
  16.3529517  29.0311753  11.0200744  16.8832011  28.7934846  12.4180082
   8.7598141  18.0819978  15.2078705   8.7982241  17.5483569  16.0015823
   8.2538434  17.5555183  14.5889682  21.1624410  30.5809369  18.1019362
  21.7142718  30.7440990  18.8668447  21.5030604  31.1713806  17.4299387
  16.1388904  12.9284518  18.7041247  16.2030230  13.7899349  18.2918645
  16.0756024  12.3158520  17.9713605  15.6141176  15.0007651  22.3514281
  16.2413215  14.6184728  22.9651805  14.7569095  14.7821853  22.7169974
  12.3906719  16.8084080   8.2832636  12.6860160  15.8994759   8.2299690
  11.4894755  16.7871820   7.9613638  24.2992798  28.5291344  15.0883044
  24.1743937  27.7281084  14.5793990  24.9571889  29.0237538  14.5997014
  15.9200966  14.8840077  14.2660185  15.1987552  15.4976044  14.1267658
  16.7094222  15.4197842  14.1876830  18.7227279  12.2194503  20.5400836
  19.2461681  12.4656800  21.3027146  18.5039613  13.0514538  20.1203974
  14.1194560  14.4898178   8.4071961  13.7907267  13.6095557   8.2247067
  14.4733931  14.4345846   9.2948350  23.3674139  26.1253080  12.9166947
  23.2199102  25.1969788  13.0974517  24.1927633  26.1473171  12.4324022
  17.2336384  14.7771148   8.7747439  17.5732456  15.3057069   8.0526047
  17.6808504  15.1151554   9.5506005  19.9279824  13.1608198  18.2250507
  19.5876645  12.3616011  18.6271187  19.2218831  13.4609909  17.6527340
  20.5796296  10.2457511  16.6777830  21.4022366   9.7717989  16.5556720
  20.8234360  11.0247994  17.1776516  19.2204531  13.2745769   6.9740732
  19.9412893  13.6527022   6.4704448  18.5969835  13.9934646   7.0775709
  23.3635654  13.9790918   7.9099064  23.5799268  14.8615556   7.6087892
  22.8829721  13.5877132   7.1804706  18.1034875  16.9376631  14.4869808
  17.9579456  17.2516934  15.3794090  17.6260079  17.5561532  13.9340707
  19.9631258  13.9279179  14.5350698  19.9492827  13.0320273  14.1982996
  20.6803686  13.9349843  15.1688984  21.8157389  14.3616520  16.5803825
  21.5575166  15.2833590  16.5788156  21.2842429  13.9646954  17.2704290
  26.7603577  27.4667307   9.3593911  26.9340455  26.9013729   8.6067763
  27.2532469  28.2668202   9.1773401  12.5780537  19.4781976  17.4257470
  12.0334005  20.2541784  17.5577744  13.4559887  19.8252780  17.2676591
  19.3668154  12.8093560   9.8038268  19.4884065  11.8810206  10.0029156
  19.0770196  12.8232246   8.8916584  22.2359344  10.4948470  12.9404988
  22.2581041  10.5587803  11.9856968  22.6527403   9.6552979  13.1345494
  32.6142968  20.2303730  10.9784211  33.0574115  19.4811055  10.5803334
  31.7369479  20.2213866  10.5957943  27.7478750  26.7834071   6.4590809
  28.4429654  27.4040764   6.6778124  28.0901900  25.9329422   6.7343187
  13.3646559  18.6051872  20.3187627  12.6228295  18.7534507  20.9052257
  13.0439303  18.8660138  19.4554376  29.6470173  24.2333777   7.9878140
  30.1721497  24.5721049   7.2627460  29.5592525  23.2980792   7.8041275
  21.3310834  30.3005760  12.3473393  20.8915824  29.8082139  13.0406250
  22.0818951  29.7578728  12.1065468  13.8103173  26.4917301  12.3498021
  14.6361193  26.1921073  11.9696665  13.4597225  25.7224923  12.7987810
  18.7784706  25.8443769  14.4195695  18.1564715  25.1814474  14.1197923
  19.4489573  25.8704901  13.7369343  12.0111778  24.4103627  13.3086955
  11.1743686  23.9825802  13.1270956  11.9835423  24.6036071  14.2457746
  18.8509233  14.3225557  24.0128201  18.8997389  15.1987680  23.6305970
  19.3931748  13.7802950  23.4399844  18.3398213  24.3947692   7.8954155
  18.4886333  25.0783157   7.2420828  19.1464656  24.3752782   8.4103611
  26.7465716  17.6990075  21.9221373  27.6475579  17.5596539  21.6305371
  26.8213691  17.8644529  22.8619551  21.0808522  15.0756929  20.7674559
  20.2111831  15.3690495  20.4957148  21.3168002  15.6597374  21.4881823
  32.1575833  21.7008968  13.3706658  32.9922725  22.1398772  13.5344219
  32.2934962  21.2247621  12.5514904  29.2067339  19.2588703  19.3184146
  29.6821461  19.4516349  18.5102997  28.2832904  19.3147889  19.0727530
  16.0950846  20.4212870   8.9015224  15.8496888  19.5175200   9.0995434
  16.2646760  20.4230020   7.9594702  23.7847556  11.2936546  18.2839980
  24.3029499  12.0297573  17.9586468  23.4302688  11.6000540  19.1186739
  24.0360150   7.7136829  13.8040876  24.3161904   7.0460018  14.4301303
  24.8210757   7.9065924  13.2915540  21.8393618  26.8895823   5.3665903
  21.2667585  27.5086010   4.9136375  22.4126412  27.4395184   5.9005825
  27.9069008  16.1354463  17.5512452  28.8586431  16.2352561  17.5724676
  27.7372459  15.3432731  18.0610536  25.9283388  13.2210046  17.7371852
  25.3333320  13.5015059  17.0418341  25.6433084  13.7103947  18.5088594
  25.0590878  27.1732973   6.4974485  25.9921551  27.1078535   6.7007361
  24.9714091  28.0089240   6.0389018  27.6878895  26.4898843   3.4578433
  27.6092526  26.1558707   4.3514190  28.5088562  26.9820611   3.4569905
  30.3857086  19.3560583  16.6654751  30.3533406  18.4176583  16.8514435
  30.9957710  19.4344619  15.9320576  22.2240417  18.2256636   2.7081955
  23.1699521  18.0962844   2.7770373  21.8454662  17.4871297   3.1851383
  30.5351574  16.1471626  16.7113034  30.0190623  15.3630083  16.5242963
  31.4191523  15.8190343  16.8759554  28.1962301   9.8912642  12.6708847
  27.9987122   9.5827730  13.5552179  28.8062007  10.6174280  12.8006777
  36.2033636  20.4176589  15.8060788  36.9337024  20.1561878  16.3668491
  35.5940581  19.6805311  15.8462856  34.2848933  18.5584452  16.4035239
  33.5582096  18.4240417  15.7951731  33.8696220  18.8661281  17.2091957
  11.3261274  17.4712975  13.0935887  11.0064059  16.6178284  12.8010261
  10.7794702  17.6861553  13.8493854  15.1041182  20.1875416  16.8105393
  15.3227192  21.1192524  16.8293427  15.5166956  19.8283391  17.5960197
  22.0245400  10.6943502   8.7981082  21.2146128  10.3490587   9.1736328
  22.7129817  10.3851045   9.3868693  23.9535948   9.7721548  10.4205378
  24.5066987  10.1917002  11.0795401  24.1906034   8.8457297  10.4628334
  19.9769047  15.7608622  26.2008142  19.8765774  16.7102979  26.1320233
  19.7590589  15.4326861  25.3284212  11.1949534  21.0915887  15.0629008
  10.5013006  20.6769840  14.5498963  11.9422525  21.1336423  14.4662427
  27.3314755  11.8822074   9.9284043  26.7513424  12.5406878   9.5462095
  27.0650688  11.0599418   9.5171460  25.7818321  11.2827131  12.1305363
  26.2818100  11.3943666  11.3219682  26.4253929  10.9788184  12.7706171
  19.8400317  19.1905761  25.0173204  19.3567399  19.9906121  25.2237093
  19.9261256  19.2013706  24.0640648  13.1086277  21.0234141  12.9395023
  13.0856965  21.1221828  11.9876906  13.4186913  21.8699291  13.2612189
  15.7673655  23.0810296  17.0541638  16.7216908  23.0494238  16.9871569
  15.5686178  22.6200919  17.8691864  16.3573037  21.6511412  19.6212435
  17.1765926  22.1455490  19.6447273  16.6309845  20.7343380  19.5930003
  26.1139633  14.0422164   8.9840391  25.2265488  14.3271815   8.7660586
  26.5293622  13.8815927   8.1367668  29.4654169  14.0668685  12.6994730
  30.2414559  14.5565137  12.9719347  28.7402303  14.4926739  13.1566600
  31.9026728  14.7796304  13.7568671  32.4971219  14.5392040  13.0461979
  31.9753311  14.0603435  14.3842207  14.1223883  28.6229915  14.0711836
  13.9878351  27.8630316  13.5049834  13.7055946  29.3470815  13.6040624
  25.2582846  23.8066839   3.0788411  25.9618697  24.0116841   3.6946066
  24.5345495  24.3743601   3.3437494  26.0880657  19.5576700   9.1990681
  26.0315858  20.0145251   8.3598313  26.6408999  18.7967384   9.0213524
  29.8985463  15.3466432  10.0240801  29.6422397  14.9463067  10.8549008
  29.2738331  16.0610226   9.8990940  34.2097801  18.0862505  12.5312092
  33.6497359  18.1555694  13.3043654  33.6041304  17.9103490  11.8111588
  17.2793009  29.5199232  14.2830278  17.1625394  30.4644665  14.1808968
  16.4585456  29.2172794  14.6716077  27.1669544  24.2449368   5.1286871
  28.0015148  23.8130566   4.9464346  27.0053887  24.0731382   6.0563765
  26.8215436  20.7481481   6.4943210  26.7664240  20.5825753   5.5531654
  26.1961491  21.4557514   6.6505400  11.6107951  15.9849546  20.3204632
  12.2566815  15.4748499  20.8091858  11.4025102  16.7218227  20.8948058
  18.3047523  30.1727494  17.4986207  19.2074770  30.2051104  17.8152702
  18.0784894  29.2427945  17.5132542  20.0601126  28.9258481  14.1596285
  19.1096757  28.9260342  14.0460658  20.3633612  28.1791215  13.6432320
  23.9463681   6.8432367  10.3274465  23.1796077   6.2890853  10.4731148
  24.3574386   6.9154236  11.1888617  15.9505442  13.1317163  24.4179647
  16.8136904  12.7753967  24.6282971  15.3770853  12.7931057  25.1055051
  35.7953819  34.7619019  15.2242048  36.4332229  34.6425766  14.5205388
  35.6774662  35.7099863  15.2830000  32.6043525  34.7146447  15.1603572
  32.2662037  34.5987512  14.2724107  33.4733293  34.3137612  15.1404579
  28.4630341  36.5681923  11.1500463  27.8995206  36.4771860  10.3816751
  28.3482736  35.7481828  11.6302956  33.0863308  35.8681299  21.1189778
  33.0751949  35.4734097  20.2470282  33.2483948  35.1347371  21.7123549
  26.0094773  38.0633115  13.9884684  26.8016065  37.7223940  13.5730983
  26.2491423  38.1728090  14.9086837  34.0429900  40.2352891   6.4614928
  33.3917879  40.8206972   6.0748942  34.8374262  40.7659086   6.5209966
  27.9685527  37.3242028   6.8602063  28.7416403  36.7771015   6.7214938
  28.3210926  38.1886278   7.0716524  29.8070569  38.6518411  20.0668962
  29.5160435  39.5564041  19.9515628  30.4427554  38.6934938  20.7813031
  30.7326776  36.0295259  16.6570322  31.3290349  35.8051282  15.9427284
  30.7901748  35.2880005  17.2595769  30.3051805  33.4834694   4.4920512
  30.5577325  32.9616216   3.7303975  29.3676364  33.3200840   4.5947196
  35.3495087  32.4870473  12.2995256  36.1358177  32.0689896  11.9485673
  35.6133792  33.3916565  12.4676904  35.5205165  37.9243323   6.9983913
  34.8850998  37.9977950   7.7104817  35.1902571  38.5136922   6.3202992
  40.7503515  32.4245706  13.2028234  41.4828687  31.8544923  13.4366064
  39.9942870  32.0367306  13.6434740  30.0248093  35.3862800   6.6944887
  29.9084351  34.7107704   7.3625972  30.1350353  34.8995174   5.8777040
  32.3679634  34.8472947  10.3991577  32.0037842  34.3203568  11.1104498
  33.2246750  34.4571417  10.2258062  38.2728935  26.1367280  17.6622843
  37.9412260  27.0062691  17.4384058  37.6774548  25.8203564  18.3416873
  32.0085121  29.8762847   5.3952925  32.1759524  30.7443084   5.7623396
  31.8182290  30.0390129   4.4714214  34.7660454  38.3379826  17.0618756
  34.4661178  39.2404865  16.9534563  34.4211514  38.0712009  17.9139908
  28.2172936  34.7893623  13.0955460  27.2923432  34.6569837  13.3033152
  28.4657349  35.5687842  13.5925402  38.1657598  30.8562366  14.7416193
  37.2574476  30.7877775  14.4474954  38.1145194  31.3334311  15.5698018
  31.9874342  32.3320505   6.3799592  31.8673967  32.7777555   7.2185072
  31.2926931  32.6805822   5.8213130  25.5781747  34.4326896  13.9299249
  25.7074128  34.6861375  14.8438661  24.8979198  35.0254604  13.6103904
  29.7481234  45.1024146  10.0289723  29.6705264  46.0531972  10.1078204
  29.1442878  44.7570019  10.6864650  32.2398464  32.2752012  22.6851090
  31.4631798  32.8345932  22.6753955  32.8789027  32.7608795  23.2065960
  40.0319245  29.0578805  16.5194067  39.3893625  29.3511338  15.8733861
  39.5274173  28.9431725  17.3247263  37.6859408  32.8041978   7.2079926
  38.5977264  33.0369365   7.0327624  37.1769055  33.3879022   6.6455005
  30.4944836  35.0837465  22.2469057  31.2359521  35.6222509  21.9703881
  29.7881822  35.7103754  22.4040609  35.9700176  37.2266606  20.8441219
  36.3783532  36.7849016  20.0995851  35.2477438  36.6519233  21.0975412
  32.3231246  32.1639212  18.2174776  33.1692441  32.5878626  18.3609425
  32.2629884  31.5072837  18.9113339  36.2928991  37.7867796  14.5993508
  35.6637853  37.9513510  13.8969575  35.9054653  38.2009406  15.3704472
  40.1718223  38.7222234  11.9537871  39.4869261  39.1021136  11.4034905
  40.2562072  39.3317561  12.6869819  37.4269154  36.3682193  18.5533215
  37.6386049  37.0113953  17.8767596  37.3798902  35.5344510  18.0855145
  31.8456953  37.5242204  11.8643593  32.3095298  37.8029907  11.0748215
  31.5813751  36.6225649  11.6816683  28.7381034  37.0713686  14.8023356
  29.3082391  37.5000954  14.1640840  29.3289145  36.7896271  15.5007542
  30.7825839  33.6465357   8.6733158  31.4849882  34.0986400   9.1407084
  30.4506467  33.0049176   9.3013051  24.5251173  31.9048909  13.9750291
  23.7350227  32.1606438  13.4990402  25.0162420  32.7197247  14.0802332
  38.5414982  39.2454149  16.7255572  39.3632426  38.8434336  16.4438254
  38.5377385  39.1422383  17.6771688  26.4765918  32.2693489  10.9333768
  25.6797081  32.3812183  11.4517264  26.2491510  32.6080141  10.0674659
  32.3071586  38.7938192  18.8816283  32.3716018  39.2558599  19.7174455
  31.5982509  38.1635557  19.0098593  22.8088876  32.1579400  16.4065282
  23.0596914  33.0426410  16.6722858  23.3448424  31.9784001  15.6340374
  46.6320975  35.5892897  13.0740544  45.8784684  35.0200295  12.9184548
  46.7668516  35.5555562  14.0211178  32.0219603  40.4606299   8.7495263
  31.8865278  41.3057835   9.1780111  32.5629416  40.6625577   7.9861197
  25.4749001  37.9781737   9.3223188  25.9873521  38.7724988   9.4728753
  26.1271713  37.2808028   9.2556790  27.2843885  41.0947494  11.4045941
  27.4610514  42.0165458  11.2166925  28.0800719  40.7805913  11.8340321
  33.6488080  41.0829866  22.8795605  33.2051934  40.2966244  22.5616510
  34.3105293  41.2709016  22.2139496  28.4075201  42.6125667  17.4056284
  28.9582626  42.4842731  16.6333278  27.5686677  42.9120557  17.0551176
  35.7469318  41.3632666  20.9077006  35.7287793  42.1841547  20.4157276
  36.6689238  41.2386741  21.1327148  32.2042372  38.8776795  21.7500515
  32.7370709  38.1165084  21.5199823  31.6756453  38.5850447  22.4924669
  23.4397917  36.3070392  10.0982759  24.2773139  36.7167400   9.8816466
  23.6176185  35.3669834  10.0682952  35.3362349  33.9745472   5.7866592
  34.8208973  34.7450077   6.0254979  35.0639658  33.3010609   6.4099653
  32.9209461  28.8195173  10.8451830  32.0651057  28.4302024  10.6657469
  33.3336412  28.8987134   9.9851615  40.3096624  36.7277827   7.7219765
  39.5326066  36.3888987   7.2774927  40.9888105  36.7330450   7.0474730
  35.1248653  31.8472564   7.6126373  34.8198788  32.1618714   8.4636516
  36.0779095  31.9253984   7.6553706  33.5695085  38.0062788   9.2619327
  33.0416446  37.2715547   8.9492564  33.0682587  38.7837464   9.0159295
  38.5487931  36.2011808  14.3786373  37.8911605  36.8911070  14.4666502
  39.3528330  36.5908240  14.7220359  28.3013812  28.6682454  11.6225938
  28.8757564  28.4457636  10.8899131  28.8884795  28.7371149  12.3754540
  37.3593389  34.5556181  12.4290315  37.8725271  35.1886173  12.9312025
  38.0094613  33.9557376  12.0633675  28.6283399  30.6986915   5.6421824
  27.7920711  31.0361602   5.9631098  28.4888169  30.5635895   4.7048960
  30.6036480  25.5423703  10.3501008  29.9500892  25.2272720   9.7257622
  30.5616954  24.9199443  11.0760831  31.7147685  35.8242998   2.2654300
  30.8074746  35.5932252   2.4645449  32.2118717  35.0280617   2.4528281
  33.8374220  32.0305637  14.6748655  32.9196782  32.2520584  14.5170343
  34.2534364  32.1051947  13.8160363  34.6209268  33.4297052   9.8051336
  35.3681087  33.9418449   9.4958458  34.8900858  33.1081105  10.6655729
  32.8935918  35.9255593   6.7878290  31.9847137  35.6414626   6.8850760
  32.9231002  36.3454671   5.9281597  38.1255186  39.5362182  10.5569457
  37.6717513  38.6953092  10.6134648  37.4949152  40.1723581  10.8944238
  37.0688105  30.4654168  11.7870125  36.3310862  29.9531555  12.1180367
  37.3214879  30.0254550  10.9753402  36.5688125  41.3738679  11.4919276
  36.8611099  41.9343736  10.7731641  37.0786745  41.6667240  12.2472435
  37.1699732  23.2430420  12.3811894  37.4758609  22.3827784  12.0937809
  37.8952337  23.8348041  12.1810888  23.4624089  33.6461107  10.7693492
  23.2648488  33.0530468  10.0444559  22.9070753  33.3413317  11.4869431
  31.4420812  33.5384214  12.8888085  31.4969422  32.5858050  12.8130562
  30.6312014  33.6943653  13.3729384  32.5912006  37.4664337   4.1266368
  32.1531436  36.7500196   3.6672006  33.3322447  37.6940451   3.5651460
  29.3813172  32.1561273  10.6478464  28.5681038  32.4555444  11.0543656
  29.8772166  31.7616962  11.3652946  31.5321750  42.1519030  12.5812729
  31.4897929  42.3779877  11.6521261  32.4484449  41.9182405  12.7298530
  34.9787384  32.6203098  19.4793358  35.3336771  32.8474571  20.3387824
  35.6259515  32.9521475  18.8570613  40.7085121  35.7421534  10.1842687
  40.5703019  35.9323130   9.2563876  40.3521340  36.5040916  10.6410738
  40.7354500  37.8098061  15.1953959  41.1691007  37.7173350  16.0437013
  41.4486081  37.7855561  14.5573974  29.6487551  39.0282059  12.3774691
  30.4428149  38.5332379  12.1757266  28.9379243  38.4999922  12.0142397
  34.4682395  41.4100155  16.7287059  34.5219418  41.9791091  17.4964775
  33.5997177  41.5802040  16.3641096  25.9570314  33.1725141   8.4534444
  25.0267902  33.1109596   8.6704406  26.0527786  32.6501094   7.6571085
  25.8755863  29.6979954  11.0412686  26.1362681  30.6125287  10.9321846
  26.6973036  29.2304396  11.1909299  41.5970050  37.8521761  17.7286844
  41.7905940  38.7567572  17.9746119  41.4970668  37.3929180  18.5625429
  36.6585159  38.0028504  23.3027725  36.5070665  37.7739056  22.3857808
  36.6489838  38.9599105  23.3159070  33.4270495  35.5760417  18.2873991
  34.3562555  35.7271576  18.1142958  33.0061525  35.6644438  17.4322637
  32.2258827  39.6011081  16.0572529  32.0869912  39.2329866  16.9298467
  31.4373423  40.1158721  15.8856486  32.8206979  44.7020178   7.3998065
  32.9958734  44.2308221   8.2143688  32.1339767  45.3285944   7.6279326
  33.7764042  38.9792684  13.4461366  33.4413875  38.9393454  14.3419016
  33.2767988  38.3137400  12.9731777  27.7508286  34.3860314  18.9713948
  27.6128084  33.6540553  19.5725487  28.6613209  34.2969214  18.6898135
  30.3790587  34.0980273  18.4597627  31.0890205  33.4573465  18.4184246
  30.3359895  34.3493168  19.3823808  38.3677365  41.0347627  21.3804206
  38.3089911  40.3506847  20.7134789  38.7696884  41.7766617  20.9284832
  27.3868064  47.8509540  14.1737925  27.6264662  48.4828065  14.8516944
  26.5437260  47.4997580  14.4603285  28.5021779  30.5434143   2.8419730
  27.6251246  30.4222943   2.4781977  28.9779533  29.7520221   2.5898619
  38.3694772  38.9987211  19.6118186  37.4821551  38.6613132  19.7344585
  38.9393324  38.2670242  19.8486951  20.0223920  35.3311302  12.9361237
  20.7094959  35.0173032  12.3482253  19.8672048  36.2352667  12.6628489
  31.8995926  43.6588663  16.5779429  31.8266097  44.4643634  17.0898734
  31.4573319  43.8580629  15.7527451  31.6885705  42.8960433  10.0882251
  30.9053227  43.4382113  10.1820475  32.3878451  43.4134413  10.4876492
  34.9982356  28.7055062  12.7316456  35.4951055  27.9525025  12.4117526
  34.2269337  28.7419379  12.1659666  42.8512113  34.4095428  14.3734748
  42.8401989  35.2920143  14.0028681  41.9829492  34.0566979  14.1789285
  34.3594609  43.5575497  18.7337588  35.0722582  44.1922962  18.6613489
  33.8684638  43.6539363  17.9177590  36.0812136  37.4626750  10.3054880
  35.1468415  37.5828212  10.1359584  36.2588805  36.5599216  10.0414889
  31.5817324  30.8472445  12.4588141  31.2115112  30.2943486  13.1469046
  32.0776417  30.2430579  11.9063141  39.4684688  33.3044069  10.8404914
  39.9345140  34.1372060  10.7665216  39.9192188  32.8389050  11.5450172
  29.4106523  41.3069940  19.5543159  30.1115982  41.9406423  19.7072553
  28.9401638  41.6484672  18.7938798  37.5360919  39.6487890   7.8391066
  37.8120763  39.5344485   8.7484940  36.6665417  39.2505375   7.8003239
  37.4401350  25.6724656  14.8795815  36.5264430  25.9028883  15.0478022
  37.8694452  25.7563100  15.7309847  37.2107809  33.8614548  17.3795709
  36.5579259  34.1090455  16.7248162  37.5888189  33.0478686  17.0458186
  34.1714983  43.8974241  11.4823879  34.3537377  43.0795897  11.9451632
  34.9947969  44.1141933  11.0448769  34.5057148  42.8242426   8.7438928
  35.0344915  42.3134881   8.1309090  34.7685368  42.5084956   9.6084461
  33.2595382  34.6034359  23.8661746  32.5836019  34.5028488  24.5364121
  34.0823016  34.4473573  24.3297743  25.0074241  40.8406295  16.4874261
  25.5927678  40.0949983  16.6202166  24.8099079  41.1510252  17.3710925
  27.8612896  43.8757543  11.5036704  27.1923271  44.3603670  11.0200744
  27.7225766  44.1226763  12.4180082  19.5991896  33.4111896  15.2078705
  19.6375995  32.8775486  16.0015823  19.0932189  32.8847101  14.5889682
  32.0018165  45.9101286  18.1019362  32.5536473  46.0732908  18.8668447
  32.3424358  46.5005724  17.4299387  36.8529039  40.7362544  23.9568017
  37.3968943  41.3492502  23.4622971  36.2715884  41.2942122  24.4735030
  23.2300473  32.1375998   8.2832636  23.5253914  31.2286676   8.2299690
  22.3288509  32.1163737   7.9613638  35.1386552  43.8583262  15.0883044
  35.0137692  43.0573002  14.5793990  35.7965643  44.3529455  14.5997014
  26.7594720  30.2131994  14.2660185  26.0381306  30.8267962  14.1267658
  27.5487976  30.7489759  14.1876830  37.2021460  41.6592282  16.7162594
  36.2551796  41.5397633  16.6440921  37.5504234  40.7714780  16.7988856
  24.9588315  29.8190095   8.4071961  24.6301021  28.9387474   8.2247067
  25.3127686  29.7637764   9.2948350  34.2067894  41.4544998  12.9166947
  34.0592856  40.5261706  13.0974517  35.0321387  41.4765089  12.4324022
  28.0730138  30.1063065   8.7747439  28.4126211  30.6348986   8.0526047
  28.5202259  30.4443471   9.5506005  37.8102016  42.2773557  14.0031819
  38.7348563  42.0716418  13.8656271  37.6417319  42.0289958  14.9121161
  30.0598285  28.6037687   6.9740732  30.7806648  28.9818940   6.4704448
  29.4363589  29.3226564   7.0775709  34.2029408  29.3082836   7.9099064
  34.4193022  30.1907474   7.6087892  33.7223475  28.9169049   7.1804706
  28.9428629  32.2668549  14.4869808  28.7973210  32.5808852  15.3794090
  28.4653833  32.8853449  13.9340707  37.5997332  42.7959224   9.3593911
  37.7734209  42.2305647   8.6067763  38.0926223  43.5960119   9.1773401
  23.4174292  34.8073893  17.4257470  22.8727760  35.5833701  17.5577744
  24.2953641  35.1544698  17.2676591  30.2061908  28.1385477   9.8038268
  30.3277819  27.2102123  10.0029156  29.9163951  28.1524163   8.8916584
  33.0753099  25.8240388  12.9404988  33.0974795  25.8879721  11.9856968
  33.4921158  24.9844896  13.1345494  43.4536723  35.5595647  10.9784211
  43.8967869  34.8102972  10.5803334  42.5763233  35.5505784  10.5957943
  24.2040313  33.9343790  20.3187627  23.4622050  34.0826425  20.9052257
  23.8833058  34.1952055  19.4554376  40.4863927  39.5625694   7.9878140
  41.0115251  39.9012967   7.2627460  40.3986280  38.6272710   7.8041275
  32.1483976  43.4759768  20.1168017  32.4571103  43.2308915  20.9890716
  32.9459458  43.6806406  19.6286887  32.1704588  45.6297678  12.3473393
  31.7309578  45.1374056  13.0406250  32.9212705  45.0870645  12.1065468
  24.6496927  41.8209218  12.3498021  25.4754947  41.5212990  11.9696665
  24.2990979  41.0516841  12.7987810  29.6178460  41.1735687  14.4195695
  28.9958470  40.5106392  14.1197923  30.2883327  41.1996819  13.7369343
  22.8505532  39.7395545  13.3086955  22.0137440  39.3117719  13.1270956
  22.8229178  39.9327988  14.2457746  40.1757833  40.1958598  23.2929338
  39.3853377  40.1782737  22.7533837  39.9391188  40.7346892  24.0478374
  40.2955709  37.0451064  20.6062066  40.3453713  36.8801072  21.5477589
  40.1869632  36.1778323  20.2159947  29.1791967  39.7239610   7.8954155
  29.3280088  40.4075074   7.2420828  29.9858411  39.7044700   8.4103611
  37.5859471  33.0281992  21.9221373  38.4869334  32.8888457  21.6305371
  37.6607445  33.1936447  22.8619551  41.7973905  39.4648006  20.8504088
  41.5058714  39.8277986  21.6867549  41.1846037  38.7515014  20.6717420
  42.9969588  37.0300886  13.3706658  43.8316479  37.4690690  13.5344219
  43.1328716  36.5539539  12.5514904  40.0461094  34.5880620  19.3184146
  40.5215215  34.7808267  18.5102997  39.1226659  34.6439806  19.0727530
  26.9344600  35.7504788   8.9015224  26.6890642  34.8467118   9.0995434
  27.1040515  35.7521938   7.9594702  26.2040248  31.4833145   6.4001386
  25.5109493  31.5577500   5.7441422  25.9592000  30.7193489   6.9222903
  34.8753904  23.0428747  13.8040876  35.1555658  22.3751936  14.4301303
  35.6604511  23.2357842  13.2915540  38.7462763  31.4646381  17.5512452
  39.6980185  31.5644478  17.5724676  38.5766213  30.6724649  18.0610536
  41.2250840  34.6852500  16.6654751  41.1927160  33.7468501  16.8514435
  41.8351464  34.7636537  15.9320576  33.0634171  33.5548553   2.7081955
  34.0093276  33.4254761   2.7770373  32.6848416  32.8163215   3.1851383
  41.3745329  31.4763544  16.7113034  40.8584378  30.6922000  16.5242963
  42.2585277  31.1482260  16.8759554  39.0356056  25.2204559  12.6708847
  38.8380877  24.9119647  13.5552179  39.6455761  25.9466198  12.8006777
  47.0427390  35.7468507  15.8060788  47.7730779  35.4853795  16.3668491
  46.4334336  35.0097229  15.8462856  45.1242687  33.8876370  16.4035239
  44.3975851  33.7532335  15.7951731  44.7089974  34.1953198  17.2091957
  32.9472864  37.6066299  24.1682612  33.8675873  37.7844898  24.3622659
  32.9122447  36.6622345  24.0162311  31.2477088  31.4798530   2.6436840
  30.3408544  31.1831642   2.7199554  31.5253069  31.1828348   1.7771127
  22.1655029  32.8004893  13.0935887  21.8457813  31.9470201  12.8010261
  21.6188457  33.0153471  13.8493854  25.9434936  35.5167334  16.8105393
  26.1620946  36.4484442  16.8293427  26.3560710  35.1575308  17.5960197
  32.8639154  26.0235419   8.7981082  32.0539882  25.6782504   9.1736328
  33.5523571  25.7142963   9.3868693  34.7929702  25.1013466  10.4205378
  35.3460741  25.5208920  11.0795401  35.0299789  24.1749214  10.4628334
  30.0175873  28.3385465   2.7848820  30.8795037  28.6640363   3.0444637
  30.2026217  27.5516961   2.2721885  22.0343289  36.4207804  15.0629008
  21.3406760  36.0061757  14.5498963  22.7816280  36.4628341  14.4662427
  38.1708509  27.2113991   9.9284043  37.5907179  27.8698795   9.5462095
  37.9044442  26.3891336   9.5171460  36.6212076  26.6119049  12.1305363
  37.1211854  26.7235583  11.3219682  37.2647684  26.3080102  12.7706171
  30.6794072  34.5197679  25.0173204  30.1961153  35.3198039  25.2237093
  30.7655011  34.5305623  24.0640648  23.9480031  36.3526058  12.9395023
  23.9250719  36.4513746  11.9876906  24.2580668  37.1991209  13.2612189
  26.6067409  38.4102213  17.0541638  27.5610663  38.3786156  16.9871569
  26.4079933  37.9492837  17.8691864  27.1966791  36.9803329  19.6212435
  28.0159680  37.4747408  19.6447273  27.4703599  36.0635297  19.5930003
  36.9533388  29.3714082   8.9840391  36.0659243  29.6563732   8.7660586
  37.3687377  29.2107845   8.1367668  40.3047924  29.3960603  12.6994730
  41.0808314  29.8857055  12.9719347  39.5796058  29.8218657  13.1566600
  42.7420482  30.1088222  13.7568671  43.3364973  29.8683958  13.0461979
  42.8147066  29.3895352  14.3842207  24.9617638  43.9521833  14.0711836
  24.8272106  43.1922234  13.5049834  24.5449700  44.6762733  13.6040624
  36.9274411  34.8868618   9.1990681  36.8709613  35.3437169   8.3598313
  37.4802754  34.1259302   9.0213524  40.7379217  30.6758349  10.0240801
  40.4816151  30.2754985  10.8549008  40.1132085  31.3902143   9.8990940
  45.0491555  33.4154423  12.5312092  44.4891113  33.4847612  13.3043654
  44.4435058  33.2395407  11.8111588  28.1186764  44.8491150  14.2830278
  28.0019148  45.7936582  14.1808968  27.2979210  44.5464711  14.6716077
  37.6609191  36.0773399   6.4943210  37.6057994  35.9117670   5.5531654
  37.0355246  36.7849432   6.6505400  22.4501706  31.3141463  20.3204632
  23.0960569  30.8040417  20.8091858  22.2418857  32.0510145  20.8948058
  34.9755098  38.3822311  25.8196773  35.8446257  38.5562963  25.4583408
  34.4961849  39.2016728  25.6972502  30.9705316  25.5781508   6.0728529
  30.9583986  26.5223348   6.2296799  31.8628738  25.3951653   5.7787990
  29.1441278  45.5019412  17.4986207  30.0468525  45.5343022  17.8152702
  28.9178648  44.5719863  17.5132542  30.8994880  44.2550398  14.1596285
  29.9490511  44.2552260  14.0460658  31.2027366  43.5083133  13.6432320
  34.7857435  22.1724284  10.3274465  34.0189831  21.6182771  10.4731148
  35.1968140  22.2446153  11.1888617  43.4437280  50.0438365  15.1603572
  43.1055791  49.9279429  14.2724107  44.3127048  49.6429530  15.1404579
  43.9257063  51.1973216  21.1189778  43.9145704  50.8026015  20.2470282
  44.0877702  50.4639289  21.7123549  36.8488527  53.3925033  13.9884684
  37.6409819  53.0515857  13.5730983  37.0885178  53.5020008  14.9086837
  40.6464324  53.9810328  20.0668962  40.3554190  54.8855959  19.9515628
  41.2821308  54.0226856  20.7813031  41.5720531  51.3587177  16.6570322
  42.1684103  51.1343199  15.9427284  41.6295502  50.6171922  17.2595769
  49.1122689  41.4659198  17.6622843  48.7806014  42.3354609  17.4384058
  48.5168303  41.1495482  18.3416873  39.0566690  50.1185541  13.0955460
  38.1317187  49.9861755  13.3033152  39.3051104  50.8979760  13.5925402
  49.0051353  46.1854284  14.7416193  48.0968230  46.1169692  14.4474954
  48.9538949  46.6626229  15.5698018  36.4175501  49.7618814  13.9299249
  36.5467883  50.0153293  14.8438661  35.7372953  50.3546522  13.6103904
  43.0792219  47.6043930  22.6851090  42.3025553  48.1637850  22.6753955
  43.7182782  48.0900713  23.2065960  50.8712999  44.3870722  16.5194067
  50.2287379  44.6803256  15.8733861  50.3667928  44.2723643  17.3247263
  41.3338591  50.4129383  22.2469057  42.0753275  50.9514427  21.9703881
  40.6275576  51.0395672  22.4040609  43.1625001  47.4931130  18.2174776
  44.0086196  47.9170544  18.3609425  43.1023638  46.8364754  18.9113339
  46.3124446  45.1535498  19.8755949  46.0685378  45.9077559  19.3390225
  46.5884376  45.5320846  20.7103196  45.8689138  44.3091932  15.4569787
  45.0073617  44.6073185  15.7486525  45.8951572  44.5262330  14.5250820
  40.0699955  47.5669031  23.0484367  39.4398615  48.2485312  23.2819764
  39.9636042  47.4552113  22.1037505  35.3644927  47.2340827  13.9750291
  34.5743981  47.4898356  13.4990402  35.8556174  48.0489165  14.0802332
  33.6482630  47.4871318  16.4065282  33.8990668  48.3718327  16.6722858
  34.1842178  47.3075919  15.6340374  39.3480697  41.8689797  25.4109618
  38.9547643  41.3155995  26.0857262  40.1646838  42.1800375  25.8016136
  42.2648658  43.2847676  23.0029875  43.0058372  43.8854829  22.9234337
  42.4966581  42.5425314  22.4447917  37.4089996  48.4704043  21.2808104
  37.2943511  47.5689301  21.5815203  36.5534514  48.7167740  20.9292921
  46.2105821  39.3128779  17.2794156  45.8670091  40.2030421  17.2033267
  46.5784784  39.1230437  16.4163741  45.2902362  41.6833434  15.2443390
  44.7867157  41.6463569  14.4311195  45.5832969  42.5926177  15.3040046
  41.5345248  41.7672164  14.2509571  42.3998244  41.5714973  13.8915461
  41.6022756  41.5382516  15.1778928  39.1407567  43.9974372  11.6225938
  39.7151319  43.7749553  10.8899131  39.7278549  44.0663066  12.3754540
  41.4430234  40.8715621  10.3501008  40.7894647  40.5564638   9.7257622
  41.4010708  40.2491361  11.0760831  44.6767975  47.3597554  14.6748655
  43.7590536  47.5812501  14.5170343  45.0928118  47.4343865  13.8160363
  48.0093487  38.5722338  12.3811894  48.3152364  37.7119702  12.0937809
  48.7346092  39.1639958  12.1810888  34.3017843  48.9753025  10.7693492
  34.1042243  48.3822385  10.0444559  33.7464507  48.6705235  11.4869431
  42.2814567  48.8676131  12.8888085  42.3363176  47.9149968  12.8130562
  41.4705769  49.0235570  13.3729384  45.8181138  47.9495015  19.4793358
  46.1730526  48.1766489  20.3387824  46.4653269  48.2813392  18.8570613
  39.7121001  45.0571546  16.2639699  40.3520381  44.9160306  15.5662662
  38.8798532  44.7706060  15.8878301  36.7149618  45.0271871  11.0412686
  36.9756435  45.9417205  10.9321846  37.5366790  44.5596314  11.1909299
  38.1874543  46.4409629  18.2111510  38.8597597  46.2326991  17.5624159
  37.3604330  46.2431715  17.7716743  44.0900115  43.0671570  20.2277171
  43.4428030  43.7661519  20.1341648  44.8601131  43.5007713  20.5953419
  44.2664249  50.9052334  18.2873991  45.1956309  51.0563494  18.1142958
  43.8455279  50.9936355  17.4322637  38.5902040  49.7152232  18.9713948
  38.4521838  48.9832470  19.5725487  39.5006964  49.6261132  18.6898135
  41.2184341  49.4272191  18.4597627  41.9283960  48.7865383  18.4184246
  41.1753649  49.6785086  19.3823808  39.9313275  46.4137409  20.2793267
  39.3950632  45.9628147  20.9314863  39.3429983  46.5483318  19.5363731
  30.8617674  50.6603220  12.9361237  31.5488714  50.3464950  12.3482253
  30.7065803  51.5644585  12.6628489  35.6652396  45.5493417  17.3646261
  35.5810585  44.9419086  16.6296671  34.8435103  46.0402435  17.3655757
  45.8376110  44.0346980  12.7316456  46.3344810  43.2816942  12.4117526
  45.0663092  44.0711297  12.1659666  42.4211079  46.1764363  12.4588141
  42.0508866  45.6235403  13.1469046  42.9170171  45.5722497  11.9063141
  48.2795105  41.0016574  14.8795815  47.3658185  41.2320800  15.0478022
  48.7088206  41.0855018  15.7309847  48.0501563  49.1906466  17.3795709
  47.3973014  49.4382373  16.7248162  48.4281943  48.3770604  17.0458186
  44.0989136  49.9326277  23.8661746  43.4229773  49.8320406  24.5364121
  44.9216770  49.7765490  24.3297743  35.8467995  56.1698213  16.4874261
  36.4321432  55.4241901  16.6202166  35.6492834  56.4802170  17.3710925
  30.4385650  48.7403813  15.2078705  30.4769750  48.2067404  16.0015823
  29.9325943  48.2139019  14.5889682  37.8176413  43.5868354  18.7041247
  37.8817739  44.4483185  18.2918645  37.7543533  42.9742355  17.9713605
  37.2928685  45.6591486  22.3514281  37.9200724  45.2768564  22.9651805
  36.4356604  45.4405688  22.7169974  37.5988475  45.5423912  14.2660185
  36.8775061  46.1559880  14.1267658  38.3881731  46.0781677  14.1876830
  40.4014788  42.8778339  20.5400836  40.9249190  43.1240635  21.3027146
  40.1827122  43.7098373  20.1203974  35.7982069  45.1482013   8.4071961
  35.4694776  44.2679392   8.2247067  36.1521440  45.0929682   9.2948350
  41.6067333  43.8192034  18.2250507  41.2664154  43.0199847  18.6271187
  40.9006340  44.1193744  17.6527340  42.2583805  40.9041346  16.6777830
  43.0809874  40.4301824  16.5556720  42.5021869  41.6831830  17.1776516
  39.7822384  47.5960467  14.4869808  39.6366965  47.9100770  15.3794090
  39.3047588  48.2145367  13.9340707  41.6418767  44.5863015  14.5350698
  41.6280336  43.6904108  14.1982996  42.3591195  44.5933678  15.1688984
  43.4944898  45.0200355  16.5803825  43.2362675  45.9417426  16.5788156
  42.9629938  44.6230789  17.2704290  34.2568046  50.1365811  17.4257470
  33.7121514  50.9125619  17.5577744  35.1347396  50.4836616  17.2676591
  43.9146853  41.1532305  12.9404988  43.9368550  41.2171639  11.9856968
  44.3314912  40.3136814  13.1345494  35.0434068  49.2635707  20.3187627
  34.3015804  49.4118343  20.9052257  34.7226812  49.5243973  19.4554376
  33.6899287  55.0687463  13.3086955  32.8531195  54.6409637  13.1270956
  33.6622932  55.2619906  14.2457746  40.5296742  44.9809392  24.0128201
  40.5784898  45.8571515  23.6305970  41.0719256  44.4386785  23.4399844
  48.4253225  48.3573910  21.9221373  49.3263088  48.2180375  21.6305371
  48.5001200  48.5228365  22.8619551  42.7596031  45.7340765  20.7674559
  41.8899340  46.0274331  20.4957148  42.9955511  46.3181210  21.4881823
  45.4635065  41.9520382  18.2839980  45.9817008  42.6881409  17.9586468
  45.1090197  42.2584375  19.1186739  45.7147659  38.3720664  13.8040876
  45.9949413  37.7043853  14.4301303  46.4998266  38.5649760  13.2915540
  49.5856517  46.7938298  17.5512452  50.5373940  46.8936396  17.5724676
  49.4159968  46.0016567  18.0610536  47.6070897  43.8793881  17.7371852
  47.0120829  44.1598894  17.0418341  47.3220593  44.3687782  18.5088594
  52.2139083  46.8055461  16.7113034  51.6978132  46.0213918  16.5242963
  53.0979032  46.4774178  16.8759554  49.8749810  40.5496477  12.6708847
  49.6774631  40.2411565  13.5552179  50.4849516  41.2758116  12.8006777
  33.0048783  48.1296811  13.0935887  32.6851568  47.2762119  12.8010261
  32.4582211  48.3445389  13.8493854  36.7828691  50.8459252  16.8105393
  37.0014701  51.7776359  16.8293427  37.1954465  50.4867226  17.5960197
  45.6323457  40.4305384  10.4205378  46.1854496  40.8500837  11.0795401
  45.8693543  39.5041132  10.4628334  41.6556556  46.4192457  26.2008142
  41.5553283  47.3686814  26.1320233  41.4378098  46.0910696  25.3284212
  32.8737043  51.7499722  15.0629008  32.1800515  51.3353675  14.5498963
  33.6210034  51.7920259  14.4662427  47.4605830  41.9410967  12.1305363
  47.9605609  42.0527501  11.3219682  48.1041438  41.6372019  12.7706171
  41.5187826  49.8489596  25.0173204  41.0354908  50.6489956  25.2237093
  41.6048765  49.8597541  24.0640648  34.7873786  51.6817976  12.9395023
  34.7644474  51.7805663  11.9876906  35.0974422  52.5283127  13.2612189
  37.4461164  53.7394131  17.0541638  38.4004417  53.7078073  16.9871569
  37.2473687  53.2784755  17.8691864  38.0360546  52.3095247  19.6212435
  38.8553435  52.8039326  19.6447273  38.3097354  51.3927215  19.5930003
  33.2895460  46.6433381  20.3204632  33.9354324  46.1332335  20.8091858
  33.0812611  47.3802063  20.8948058  45.6251190  37.5016202  10.3274465
  44.8583586  36.9474689  10.4731148  46.0361895  37.5738071  11.1888617
  37.6292951  43.7900998  24.4179647  38.4924413  43.4337803  24.6282971
  37.0558362  43.4514893  25.1055051  26.0135286   2.4132749  10.6813323
  26.5575190   3.0262707  10.1868278  25.4322131   2.9712327  11.1980336
  29.3364080   1.8728803  10.0174644  28.5459624   1.8552942   9.4779144
  29.0997435   2.4117097  10.7723681  24.1361345   0.0592516  12.5442080
  25.0052504   0.2333168  12.1828715  23.6568096   0.8786932  12.4217809
  35.7953820  11.7681142   1.9487354  36.4332230  11.6487889   1.2450694
  35.6774663  12.7161985   2.0075306  33.0863310  12.8743421   7.8435085
  33.0751950  12.4796220   6.9715588  33.2483949  12.1409494   8.4368856
  29.8070571  15.6580533   6.7914269  29.5160437  16.5626164   6.6760935
  30.4427555  15.6997061   7.5058338  30.7326778  13.0357382   3.3815628
  31.3290350  12.8113404   2.6672591  30.7901749  12.2942127   3.9841076
  34.7660456  15.3441949   3.7864062  34.4661179  16.2466987   3.6779869
  34.4211515  15.0774132   4.6385215  29.7481236  22.1086269  -3.2464970
  29.6705265  23.0594094  -3.1676490  29.1442879  21.7632142  -2.5890044
  32.2398465   9.2814134   9.4096397  31.4631799   9.8408055   9.3999261
  32.8789028   9.7670917   9.9311267  30.4944838  12.0899588   8.9714364
  31.2359522  12.6284632   8.6949187  29.7881823  12.7165877   9.1285916
  35.9700177  14.2328728   7.5686525  36.3783533  13.7911139   6.8241158
  35.2477439  13.6581356   7.8220718  32.3231247   9.1701335   4.9420082
  33.1692443   9.5940749   5.0854731  32.2629885   8.5134959   5.6358645
  36.2928992  14.7929919   1.3238814  35.6637854  14.9575633   0.6214882
  35.9054654  15.2071528   2.0949778  35.4730693   6.8305703   6.6001256
  35.2291625   7.5847764   6.0635532  35.7490623   7.2091051   7.4348503
  37.4269155  13.3744316   5.2778521  37.6386051  14.0176076   4.6012903
  37.3798904  12.5406632   4.8100452  28.7381035  14.0775809   1.5268663
  29.3082392  14.5063077   0.8886147  29.3289147  13.7958393   2.2252848
  29.2306201   9.2439236   9.7729674  28.6004862   9.9255517  10.0065071
  29.1242289   9.1322318   8.8282812  38.5414983  16.2516271   3.4500879
  39.3632427  15.8496458   3.1683560  38.5377386  16.1484505   4.4016995
  32.3071587  15.8000315   5.6061589  32.3716019  16.2620722   6.4419761
  31.5982511  15.1697679   5.7343899  28.5086944   3.5460002  12.1354925
  28.1153890   2.9926200  12.8102569  29.3253084   3.8570580  12.5261442
  31.4254905   4.9617881   9.7275181  32.1664618   5.5625034   9.6479644
  31.6572828   4.2195519   9.1693224  26.5696243  10.1474248   8.0053411
  26.4549758   9.2459505   8.3060510  25.7140761  10.3937945   7.6538228
  33.6488081  18.0891989   9.6040912  33.2051935  17.3028367   9.2861816
  34.3105294  18.2771139   8.9384802  28.4075202  19.6187790   4.1301590
  28.9582627  19.4904853   3.3578584  27.5686678  19.9182679   3.7796483
  35.7469319  18.3694788   7.6322313  35.7287794  19.1903669   7.1402582
  36.6689239  18.2448864   7.8572454  32.2042373  15.8838918   8.4745821
  32.7370710  15.1227206   8.2445129  31.6756454  15.5912570   9.2169976
  38.5487932  13.2073931   1.1031680  37.8911606  13.8973192   1.1911808
  39.3528331  13.5970363   1.4465666  36.5688126  18.3800802  -1.7835418
  36.8611100  18.9405859  -2.5023052  37.0786747  18.6729363  -1.0282259
  31.5321751  19.1581153  -0.6941965  31.4897930  19.3841999  -1.6233433
  32.4484450  18.9244527  -0.5456163  34.9787385   9.6265220   6.2038665
  35.3336773   9.8536693   7.0633130  35.6259516   9.9583597   5.5815920
  34.4682396  18.4162277   3.4532366  34.5219419  18.9853214   4.2210082
  33.5997178  18.5864162   3.0886403  41.5970051  14.8583884   4.4532151
  41.7905941  15.7629694   4.6991425  41.4970669  14.3991303   5.2870736
  33.2506362   4.7441774   6.9522478  32.6034277   5.4431724   6.8586954
  34.0207377   5.1777918   7.3198726  36.6585160  15.0090627  10.0273031
  36.5070666  14.7801178   9.1103115  36.6489839  15.9661228  10.0404376
  33.4270496  12.5822539   5.0119298  34.3562556  12.7333699   4.8388265
  33.0061526  12.6706560   4.1567944  32.2258828  16.6073204   2.7817835
  32.0869914  16.2391988   3.6543773  31.4373424  17.1220843   2.6101793
  33.7764043  15.9854806   0.1706673  33.4413876  15.9455576   1.0664323
  33.2767989  15.3199522  -0.3022917  27.7508287  11.3922437   5.6959254
  27.6128085  10.6602675   6.2970793  28.6613211  11.3031337   5.4143442
  30.3790588  11.1042396   5.1842934  31.0890206  10.4635588   5.1429552
  30.3359896  11.3555291   6.1069115  38.3677366  18.0409749   8.1049513
  38.3089913  17.3568969   7.4380096  38.7696885  18.7828739   7.6530139
  29.0919522   8.0907614   7.0038573  28.5556879   7.6398352   7.6560170
  28.5036230   8.2253523   6.2609038  27.3868065  24.8571663   0.8983232
  27.6264663  25.4890187   1.5762250  26.5437262  24.5059703   1.1848591
  38.3694774  16.0049333   6.3363493  37.4821552  15.6675255   6.4589892
  38.9393325  15.2732364   6.5732258  31.8995927  20.6650785   3.3024736
  31.8266099  21.4705757   3.8144040  31.4573320  20.8642751   2.4772757
  31.6885707  19.9022556  -3.1872443  30.9053229  20.4444236  -3.0934218
  32.3878452  20.4196535  -2.7878201  34.3594611  20.5637620   5.4582895
  35.0722583  21.1985084   5.3858796  33.8684639  20.6601485   4.6422896
  29.4106524  18.3132063   6.2788465  30.1115984  18.9468546   6.4317860
  28.9401639  18.6546795   5.5184105  37.2107810  10.8676670   4.1041016
  36.5579260  11.1152578   3.4493468  37.5888190  10.0540809   3.7703493
  34.1714984  20.9036364  -1.7930814  34.3537379  20.0858020  -1.3303062
  34.9947970  21.1204056  -2.2305924  33.2595383  11.6096481  10.5907053
  32.5836020  11.5090611  11.2609428  34.0823017  11.4535695  11.0543050
  25.0074242  17.8468418   3.2119568  25.5927679  17.1012106   3.3447472
  24.8099081  18.1572375   4.0956232  27.8612897  20.8819665  -1.7717990
  27.1923273  21.3665793  -2.2553950  27.7225767  21.1288886  -0.8574611
  32.0018166  22.9163409   4.8264669  32.5536474  23.0795030   5.5913754
  32.3424360  23.5067847   4.1544694  26.4534932   7.3361691   9.0759588
  27.0806971   6.9538769   9.6897112  25.5962851   7.1175893   9.4415280
  36.8529040  17.7424666  10.6813323  37.3968944  18.3554625  10.1868278
  36.2715885  18.3004245  11.1980336  35.1386553  20.8645384   1.8128351
  35.0137693  20.0635124   1.3039296  35.7965644  21.3591578   1.3242321
  37.2021462  18.6654405   3.4407901  36.2551797  18.5459756   3.3686228
  37.5504235  17.7776903   3.5234162  29.5621035   4.5548543   7.2646143
  30.0855437   4.8010840   8.0272452  29.3433368   5.3868578   6.8449280
  34.2067895  18.4607121  -0.3587747  34.0592857  17.5323828  -0.1780177
  35.0321389  18.4827211  -0.8430671  37.8102017  19.2835679   0.7277126
  38.7348564  19.0778541   0.5901577  37.6417320  19.0352081   1.6366468
  24.2040315  10.9405912   7.0432933  23.4622051  11.0888548   7.6297564
  23.8833059  11.2014178   6.1799683  32.1483977  20.4821891   6.8413323
  32.4571104  20.2371037   7.7136023  32.9459459  20.6868529   6.3532193
  32.1704589  22.6359800  -0.9281300  31.7309580  22.1436179  -0.2348444
  32.9212706  22.0932768  -1.1689225  29.6178462  18.1797809   1.1441001
  28.9958471  17.5168514   0.8443229  30.2883328  18.2058941   0.4614649
  29.6902989   6.6579597  10.7373507  29.7391145   7.5341720  10.3551277
  30.2325503   6.1156990  10.1645151  40.1757835  17.2020721  10.0174644
  39.3853378  17.1844859   9.4779144  39.9391189  17.7409014  10.7723681
  40.2955710  14.0513187   7.3307373  40.3453715  13.8863194   8.2722896
  40.1869633  13.1840446   6.9405254  37.5859472  10.0344115   8.6466680
  38.4869335   9.8950580   8.3550678  37.6607447  10.1998570   9.5864857
  31.9202277   7.4110970   7.4919866  31.0505587   7.7044536   7.2202455
  32.1561758   7.9951415   8.2127130  41.7973907  16.4710128   7.5749395
  41.5058715  16.8340109   8.4112856  41.1846038  15.7577137   7.3962727
  40.0461095  11.5942743   6.0429453  40.5215216  11.7870389   5.2348304
  39.1226660  11.6501929   5.7972836  34.6241311   3.6290587   5.0085286
  35.1423255   4.3651614   4.6831775  34.2696444   3.9354580   5.8432046
  38.7462764   8.4708503   4.2757758  39.6980187   8.5706601   4.2969982
  38.5766214   7.6786772   4.7855843  36.7677143   5.5564086   4.4617159
  36.1727075   5.8369099   3.7663648  36.4826840   6.0457987   5.2333900
  32.9472865  14.6128422  10.8927919  33.8675874  14.7907021  11.0867965
  32.9122448  13.6684467  10.7407618  25.9434938  12.5229457   3.5350700
  26.1620947  13.4546564   3.5538734  26.3560711  12.1637431   4.3205504
  30.8162803   8.0962662  12.9253449  30.7159530   9.0457019  12.8565540
  30.5984345   7.7680901  12.0529519  30.6794073  11.5259801  11.7418511
  30.1961155  12.3260161  11.9482400  30.7655012  11.5367746  10.7885955
  26.6067410  15.4164336   3.7786944  27.5610664  15.3848278   3.7116876
  26.4079934  14.9554960   4.5937170  27.1966793  13.9865452   6.3457742
  28.0159682  14.4809531   6.3692579  27.4703600  13.0697420   6.3175310
  24.9617639  20.9583955   0.7957142  24.8272107  20.1984356   0.2295140
  24.5449701  21.6824855   0.3285931  28.1186765  21.8553272   1.0075585
  28.0019149  22.7998705   0.9054275  27.2979211  21.5526834   1.3961384
  34.9755099  15.3884433  12.5442080  35.8446259  15.5625086  12.1828715
  34.4961850  16.2078850  12.4217809  29.1441279  22.5081534   4.2231513
  30.0468526  22.5405145   4.5398008  28.9178649  21.5781985   4.2377849
  30.8994881  21.2612521   0.8841592  29.9490512  21.2614382   0.7705964
  31.2027367  20.5145255   0.3677627  26.7899198   5.4671203  11.1424953
  27.6530659   5.1108008  11.3528278  26.2164608   5.1285098  11.8300358
  43.4437281  27.0500487   1.8848879  43.1055793  26.9341552   0.9969414
  44.3127049  26.6491652   1.8649885  43.9257064  28.2035339   7.8435085
  43.9145705  27.8088137   6.9715588  44.0877703  27.4701412   8.4368856
  36.8488529  30.3987155   0.7129990  37.6409821  30.0577980   0.2976290
  37.0885179  30.5082130   1.6332144  40.6464325  30.9872451   6.7914269
  40.3554191  31.8918082   6.6760935  41.2821310  31.0288978   7.5058338
  41.5720532  28.3649299   3.3815628  42.1684104  28.1405322   2.6672591
  41.6295504  27.6234045   3.9841076  39.0566692  27.1247663  -0.1799233
  38.1317188  26.9923877   0.0278458  39.3051105  27.9041882   0.3170709
  36.4175503  26.7680937   0.6544556  36.5467884  27.0215416   1.5683967
  35.7372954  27.3608645   0.3349211  43.0792220  24.6106052   9.4096397
  42.3025554  25.1699972   9.3999261  43.7182783  25.0962835   9.9311267
  41.3338592  27.4191506   8.9714364  42.0753276  27.9576549   8.6949187
  40.6275578  28.0457794   9.1285916  46.8093932  29.5620646   7.5686525
  47.2177288  29.1203056   6.8241158  46.0871193  28.9873273   7.8220718
  43.1625002  24.4993253   4.9420082  44.0086197  24.9232666   5.0854731
  43.1023639  23.8426877   5.6358645  46.3124447  22.1597621   6.6001256
  46.0685379  22.9139682   6.0635532  46.5884378  22.5382969   7.4348503
  48.2662910  28.7036233   5.2778521  48.4779805  29.3467993   4.6012903
  48.2192658  27.8698550   4.8100452  40.0699956  24.5731154   9.7729674
  39.4398616  25.2547435  10.0065071  39.9636044  24.4614235   8.8282812
  35.3644928  24.2402950   0.6995598  34.5743982  24.4960478   0.2235709
  35.8556176  25.0551288   0.8047639  43.1465341  31.1292232   5.6061589
  43.2109774  31.5912639   6.4419761  42.4376265  30.4989597   5.7343899
  33.6482631  24.4933440   3.1310589  33.8990670  25.3780450   3.3968165
  34.1842180  24.3138042   2.3585681  39.3480699  18.8751920  12.1354925
  38.9547644  18.3218118  12.8102569  40.1646839  19.1862498  12.5261442
  42.2648660  20.2909799   9.7275181  43.0058373  20.8916952   9.6479644
  42.4966582  19.5487436   9.1693224  37.4089998  25.4766166   8.0053411
  37.2943513  24.5751423   8.3060510  36.5534515  25.7229863   7.6538228
  44.4881835  33.4183906   9.6040912  44.0445690  32.6320285   9.2861816
  45.1499049  33.6063057   8.9384802  46.5863073  33.6986706   7.6322313
  46.5681549  34.5195587   7.1402582  47.5082993  33.5740781   7.8572454
  43.0436128  31.2130836   8.4745821  43.5764464  30.4519124   8.2445129
  42.5150209  30.9204487   9.2169976  41.5345249  18.7734286   0.9754878
  42.3998246  18.5777095   0.6160768  41.6022758  18.5444638   1.9024235
  39.1407568  21.0036494  -1.6528755  39.7151320  20.7811676  -2.3855562
  39.7278550  21.0725189  -0.9000154  44.6767976  24.3659677   1.3993962
  43.7590537  24.5874624   1.2415650  45.0928120  24.4405987   0.5405669
  34.3017844  25.9815147  -2.5061201  34.1042244  25.3884508  -3.2310135
  33.7464508  25.6767358  -1.7885263  42.2814568  25.8738254  -0.3866608
  42.3363178  24.9212090  -0.4624132  41.4705770  26.0297693   0.0974690
  45.8181140  24.9557138   6.2038665  46.1730527  25.1828611   7.0633130
  46.4653271  25.2875515   5.5815920  39.7121003  22.0633669   2.9885006
  40.3520382  21.9222428   2.2907969  38.8798533  21.7768182   2.6123608
  36.7149619  22.0333994  -2.2342008  36.9756436  22.9479327  -2.3432847
  37.5366791  21.5658437  -2.0845395  38.1874544  23.4471751   4.9356817
  38.8597598  23.2389113   4.2869466  37.3604331  23.2493837   4.4962049
  44.0900116  20.0733692   6.9522478  43.4428031  20.7723642   6.8586954
  44.8601132  20.5069836   7.3198726  47.4978914  30.3382544  10.0273031
  47.3464421  30.1093096   9.1103115  47.4883594  31.2953146  10.0404376
  44.2664251  27.9114457   5.0119298  45.1956311  28.0625617   4.8388265
  43.8455281  27.9998478   4.1567944  38.5902042  26.7214354   5.6959254
  38.4521840  25.9894593   6.2970793  39.5006965  26.6323254   5.4143442
  41.2184342  26.4334314   5.1842934  41.9283961  25.7927506   5.1429552
  41.1753650  26.6847208   6.1069115  49.2071121  33.3701667   8.1049513
  49.1483667  32.6860887   7.4380096  49.6090639  34.1120657   7.6530139
  39.9313276  23.4199531   7.0038573  39.3950633  22.9690270   7.6560170
  39.3429985  23.5545440   6.2609038  49.2088528  31.3341251   6.3363493
  48.3215307  30.9967173   6.4589892  49.7787079  30.6024282   6.5732258
  30.8617675  27.6665343  -0.3393456  31.5488715  27.3527073  -0.9272441
  30.7065804  28.5706707  -0.6126205  35.6652397  22.5555539   4.0891568
  35.5810586  21.9481209   3.3541978  34.8435104  23.0464557   4.0901064
  42.4211080  23.1826486  -0.8166553  42.0508868  22.6297526  -0.1285647
  42.9170173  22.5784619  -1.3691553  40.2500279  33.6423981   6.2788465
  40.9509738  34.2760464   6.4317860  39.7795394  33.9838712   5.5184105
  48.0501565  26.1968588   4.1041016  47.3973015  26.4444496   3.4493468
  48.4281945  25.3832726   3.7703493  44.0989138  26.9388399  10.5907053
  43.4229775  26.8382528  11.2609428  44.9216772  26.7827613  11.0543050
  35.8467997  33.1760336   3.2119568  36.4321434  32.4304024   3.3447472
  35.6492835  33.4864292   4.0956232  30.4385651  25.7465936   1.9324011
  30.4769751  25.2129527   2.7261129  29.9325944  25.2201141   1.3134988
  37.8176414  20.5930476   5.4286553  37.8817740  21.4545307   5.0163951
  37.7543534  19.9804478   4.6958912  37.2928686  22.6653609   9.0759588
  37.9200725  22.2830686   9.6897112  36.4356605  22.4467811   9.4415280
  47.6922795  33.0716584  10.6813323  48.2362699  33.6846542  10.1868278
  47.1109640  33.6296163  11.1980336  37.5988476  22.5486035   0.9905491
  36.8775062  23.1622002   0.8512964  38.3881732  23.0843799   0.9122137
  40.4014790  19.8840461   7.2646143  40.9249191  20.1302758   8.0272452
  40.1827123  20.7160496   6.8449280  35.7982071  22.1544136  -4.8682732
  35.4694777  21.2741515  -5.0507626  36.1521441  22.0991804  -3.9806343
  41.6067335  20.8254156   4.9495813  41.2664155  20.0261969   5.3516493
  40.9006341  21.1255867   4.3772647  42.2583806  17.9103469   3.4023136
  43.0809876  17.4363947   3.2802027  42.5021870  18.6893952   3.9021823
  39.7822385  24.6022589   1.2115115  39.6366966  24.9162892   2.1039397
  39.3047589  25.2207490   0.6586014  41.6418768  21.5925137   1.2596005
  41.6280337  20.6966231   0.9228303  42.3591196  21.5995801   1.8934291
  43.4944899  22.0262477   3.3049132  43.2362677  22.9479548   3.3033463
  42.9629939  21.6292912   3.9949596  34.2568047  27.1427934   4.1502776
  33.7121515  27.9187742   4.2823051  35.1347397  27.4898738   3.9921898
  35.0434069  26.2697830   7.0432933  34.3015805  26.4180465   7.6297564
  34.7226814  26.5306096   6.1799683  42.9877732  35.8113808   6.8413323
  43.2964858  35.5662955   7.7136023  43.7853214  36.0160447   6.3532193
  33.6899288  32.0749585   0.0332261  32.8531196  31.6471760  -0.1483737
  33.6622933  32.2682028   0.9703053  40.5296744  21.9871515  10.7373507
  40.5784899  22.8633638  10.3551277  41.0719258  21.4448908  10.1645151
  51.0151589  32.5312638  10.0174644  50.2247133  32.5136777   9.4779144
  50.7784944  33.0700932  10.7723681  51.1349464  29.3805105   7.3307373
  51.1847469  29.2155112   8.2722896  51.0263388  28.5132364   6.9405254
  48.4253227  25.3636033   8.6466680  49.3263089  25.2242497   8.3550678
  48.5001201  25.5290487   9.5864857  42.7596032  22.7402887   7.4919866
  41.8899341  23.0336453   7.2202455  42.9955512  23.3243332   8.2127130
  52.6367661  31.8002046   7.5749395  52.3452469  32.1632027   8.4112856
  52.0239792  31.0869054   7.3962727  50.8854849  26.9234661   6.0429453
  51.3608971  27.1162307   5.2348304  49.9620415  26.9793847   5.7972836
  45.4635066  18.9582504   5.0085286  45.9817010  19.6943531   4.6831775
  45.1090199  19.2646498   5.8432046  49.5856518  23.8000421   4.2757758
  50.5373941  23.8998518   4.2969982  49.4159969  23.0078689   4.7855843
  47.6070898  20.8856004   4.4617159  47.0120830  21.1661017   3.7663648
  47.3220595  21.3749905   5.2333900  43.7866620  29.9420340  10.8927919
  44.7069629  30.1198939  11.0867965  43.7516203  28.9976385  10.7407618
  33.0048785  25.1358933  -0.1818807  32.6851569  24.2824241  -0.4744433
  32.4582213  25.3507511   0.5739161  36.7828692  27.8521374   3.5350700
  37.0014702  28.7838482   3.5538734  37.1954466  27.4929349   4.3205504
  41.6556557  23.4254580  12.9253449  41.5553284  24.3748937  12.8565540
  41.4378099  23.0972819  12.0529519  32.8737045  28.7561845   1.7874315
  32.1800516  28.3415798   1.2744269  33.6210036  28.7982381   1.1907734
  41.5187827  26.8551719  11.7418511  41.0354909  27.6552079  11.9482400
  41.6048766  26.8659664  10.7885955  34.7873787  28.6880099  -0.3359670
  34.7644475  28.7867786  -1.2877787  35.0974424  29.5345249  -0.0142504
  37.4461165  30.7456254   3.7786944  38.4004418  30.7140196   3.7116876
  37.2473689  30.2846877   4.5937170  38.0360547  29.3157370   6.3457742
  38.8553436  29.8101448   6.3692579  38.3097355  28.3989338   6.3175310
  33.2895461  23.6495503   7.0449939  33.9354325  23.1394457   7.5337164
  33.0812612  24.3864185   7.6193364  45.8148853  30.7176351  12.5442080
  46.6840013  30.8917003  12.1828715  45.3355605  31.5370768  12.4217809
  37.6292952  20.7963121  11.1424953  38.4924414  20.4399925  11.3528278
  37.0558363  20.4577015  11.8300358  50.1874453  34.2043837  12.1354925
  49.7941399  33.6510036  12.8102569  51.0040593  34.5154416  12.5261442
  48.1322441  37.9945527   9.0759588  48.7594480  37.6122604   9.6897112
  47.2750360  37.7759729   9.4415280  52.4950312  38.7546498  12.9253449
  52.3947039  39.7040855  12.8565540  52.2771854  38.4264737  12.0529519
  48.4686707  36.1255038  11.1424953  49.3318168  35.7691843  11.3528278
  47.8952117  35.7868933  11.8300358   3.2745956  43.2538857  26.3495234
   2.5209664  42.6846255  26.1939238   3.4093497  43.2201521  27.2965869
   3.6852371  43.4114467  29.0815478   4.4155759  43.1499755  29.6423182
   3.0759316  42.6743189  29.1217546   1.7667668  41.5522329  29.6789929
   1.0400832  41.4178294  29.0706421   1.3514955  41.8599158  30.4846647
   1.6916536  41.0800382  25.8066782   1.1316094  41.1493572  26.5798344
   1.0860039  40.9041367  25.0866278   4.6518468  46.2368298  25.6566584
   4.9577345  45.3765661  25.3692499   5.3771073  46.8285918  25.4565578
   2.3572640  46.0366624  27.0795567   2.6374393  45.3689813  27.7055993
   3.1423246  46.2295720  26.5670231   2.2676171  45.1662162  23.6029156
   1.5008567  44.6120649  23.7485838   2.6786876  45.2384031  24.4643307
   3.2745957  20.2600979  13.0740541   2.5209666  19.6908377  12.9184545
   3.4093498  20.2263644  14.0211175   3.6852372  20.4176589  15.8060785
   4.4155761  20.1561878  16.3668488   3.0759318  19.6805311  15.8462853
   1.7667669  18.5584452  16.4035236   1.0400833  18.4240417  15.7951728
   1.3514956  18.8661281  17.2091954   1.6916537  18.0862505  12.5312089
   1.1316095  18.1555694  13.3043651   1.0860040  17.9103490  11.8111585
   3.2772556  34.7619019  15.2242045   3.9150965  34.6425766  14.5205385
   3.1593398  35.7099863  15.2829997   2.8313824  32.4870473  12.2995253
   3.6176913  32.0689896  11.9485670   3.0952528  33.3916565  12.4676901
   8.2322251  32.4245706  13.2028231   8.9647423  31.8544923  13.4366061
   7.4761607  32.0367306  13.6434737   5.7547671  26.1367280  17.6622840
   5.4230996  27.0062691  17.4384055   5.1593285  25.8203564  18.3416870
   2.2479191  38.3379826  17.0618752   1.9479914  39.2404865  16.9534560
   1.9030251  38.0712009  17.9139905   5.6476335  30.8562366  14.7416190
   4.7393212  30.7877775  14.4474951   5.5963931  31.3334311  15.5698015
   7.5137981  29.0578805  16.5194064   6.8712361  29.3511338  15.8733858
   7.0092910  28.9431725  17.3247260   5.1678145  32.8041978   7.2079923
   6.0796001  33.0369365   7.0327621   4.6587792  33.3879022   6.6455002
   3.4518913  37.2266606  20.8441216   3.8602269  36.7849016  20.0995848
   2.7296174  36.6519233  21.0975408   3.7747727  37.7867796  14.5993504
   3.1456590  37.9513510  13.8969572   3.3873389  38.2009406  15.3704468
   7.6536959  38.7222234  11.9537868   6.9687997  39.1021136  11.4034902
   7.7380808  39.3317561  12.6869816   2.9549428  29.8243581  19.8755946
   2.7110360  30.5785641  19.3390222   3.2309358  30.2028928  20.7103193
   4.9087891  36.3682193  18.5533212   5.1204786  37.0113953  17.8767593
   4.8617639  35.5344510  18.0855142   2.5114120  28.9800014  15.4569784
   1.6498599  29.2781267  15.7486521   2.5376554  29.1970413  14.5250817
   6.0233719  39.2454149  16.7255569   6.8451162  38.8434336  16.4438251
   6.0196121  39.1422383  17.6771685  14.1139712  35.5892897  13.0740541
  13.3603420  35.0200295  12.9184545  14.2487253  35.5555562  14.0211175
   1.1306816  41.0829866  22.8795602   0.6870670  40.2966244  22.5616506
   1.7924030  41.2709016  22.2139493   3.2288054  41.3632666  20.9077003
   3.2106530  42.1841547  20.4157272   4.1507974  41.2386741  21.1327144
   2.8530803  23.9836861  17.2794153   2.5095073  24.8738503  17.2033264
   3.2209766  23.7938519  16.4163738   1.9327344  26.3541516  15.2443387
   1.4292139  26.3171652  14.4311192   2.2257951  27.2634259  15.3040043
   7.7915360  36.7277827   7.7219762   7.0144803  36.3888987   7.2774924
   8.4706841  36.7330450   7.0474727   2.6067389  31.8472564   7.6126370
   2.3017525  32.1618714   8.4636513   3.5597831  31.9253984   7.6553703
   6.0306667  36.2011808  14.3786370   5.3730341  36.8911070  14.4666499
   6.8347066  36.5908240  14.7220356   4.8412126  34.5556181  12.4290312
   5.3544008  35.1886173  12.9312021   5.4913350  33.9557376  12.0633672
   2.1028004  33.4297052   9.8051332   2.8499823  33.9418449   9.4958455
   2.3719594  33.1081105  10.6655726   5.6073922  39.5362182  10.5569454
   5.1536249  38.6953092  10.6134645   4.9767889  40.1723581  10.8944234
   4.5506842  30.4654168  11.7870122   3.8129598  29.9531555  12.1180364
   4.8033615  30.0254550  10.9753399   4.0506861  41.3738679  11.4919272
   4.3429836  41.9343736  10.7731638   4.5605482  41.6667240  12.2472432
   4.6518469  23.2430420  12.3811891   4.9577346  22.3827784  12.0937806
   5.3771074  23.8348041  12.1810885   2.4606120  32.6203098  19.4793355
   2.8155508  32.8474571  20.3387821   3.1078252  32.9521475  18.8570610
   8.1903857  35.7421534  10.1842684   8.0521756  35.9323130   9.2563873
   7.8340076  36.5040916  10.6410735   8.2173237  37.8098061  15.1953955
   8.6509744  37.7173350  16.0437009   8.9304818  37.7855561  14.5573971
   1.9501132  41.4100155  16.7287056   2.0038154  41.9791091  17.4964772
   1.0815913  41.5802040  16.3641093   9.0788786  37.8521761  17.7286841
   9.2724676  38.7567572  17.9746116   8.9789405  37.3929180  18.5625426
   4.1403895  38.0028504  23.3027721   3.9889401  37.7739056  22.3857805
   4.1308575  38.9599105  23.3159066   1.2582778  38.9792684  13.4461363
   0.9232611  38.9393454  14.3419013   0.7586724  38.3137400  12.9731774
   5.8496102  41.0347627  21.3804203   5.7908648  40.3506847  20.7134786
   6.2515620  41.7766617  20.9284829   5.8513509  38.9987211  19.6118183
   4.9640288  38.6613132  19.7344582   6.4212060  38.2670242  19.8486948
   2.4801092  28.7055062  12.7316453   2.9769792  27.9525025  12.4117523
   1.7088074  28.7419379  12.1659662  10.3330850  34.4095428  14.3734745
  10.3220726  35.2920143  14.0028678   9.4648229  34.0566979  14.1789282
   1.8413346  43.5575497  18.7337585   2.5541318  44.1922962  18.6613486
   1.3503375  43.6539363  17.9177587   3.5630873  37.4626750  10.3054877
   2.6287152  37.5828212  10.1359581   3.7407541  36.5599216  10.0414886
   6.9503424  33.3044069  10.8404911   7.4163876  34.1372060  10.7665213
   7.4010925  32.8389050  11.5450169   4.9220087  25.6724656  14.8795812
   4.0083167  25.9028883  15.0478019   5.3513188  25.7563100  15.7309844
   4.6926545  33.8614548  17.3795706   4.0397996  34.1090455  16.7248159
   5.0706925  33.0478686  17.0458183   4.3347776  40.7362544  23.9568014
   4.8787680  41.3492502  23.4622968   3.7534620  41.2942122  24.4735027
   2.6205289  43.8583262  15.0883041   2.4956428  43.0573002  14.5793987
   3.2784380  44.3529455  14.5997011   4.6840197  41.6592282  16.7162591
   3.7370533  41.5397633  16.6440918   5.0322970  40.7714780  16.7988853
   1.6886630  41.4544998  12.9166944   1.5411593  40.5261706  13.0974514
   2.5140124  41.4765089  12.4324019   5.2920752  42.2773557  14.0031816
   6.2167300  42.0716418  13.8656267   5.1236055  42.0289958  14.9121158
   1.6848145  29.3082836   7.9099061   1.9011759  30.1907474   7.6087889
   1.2042212  28.9169049   7.1804703  10.9355460  35.5595647  10.9784208
  11.3786606  34.8102972  10.5803331  10.0581970  35.5505784  10.5957939
   7.9682664  39.5625694   7.9878137   8.4933988  39.9012967   7.2627457
   7.8805016  38.6272710   7.8041271   7.6576570  40.1958598  23.2929335
   6.8672114  40.1782737  22.7533834   7.4209925  40.7346892  24.0478371
   7.7774445  37.0451064  20.6062063   7.8272450  36.8801072  21.5477586
   7.6688368  36.1778323  20.2159944   5.0678207  33.0281992  21.9221370
   5.9688070  32.8888457  21.6305368   5.1426182  33.1936447  22.8619547
   9.2792642  39.4648006  20.8504085   8.9877450  39.8277986  21.6867546
   8.6664773  38.7515014  20.6717417  10.4788324  37.0300886  13.3706655
  11.3135216  37.4690690  13.5344215  10.6147453  36.5539539  12.5514901
   7.5279830  34.5880620  19.3184143   8.0033952  34.7808267  18.5102994
   6.6045396  34.6439806  19.0727527   2.1060047  26.6228464  18.2839977
   2.6241990  27.3589491  17.9586465   1.7515179  26.9292457  19.1186736
   2.3572641  23.0428747  13.8040873   2.6374395  22.3751936  14.4301300
   3.1423248  23.2357842  13.2915537   6.2281499  31.4646381  17.5512448
   7.1798922  31.5644478  17.5724672   6.0584950  30.6724649  18.0610533
   4.2495879  28.5501964  17.7371849   3.6545811  28.8306976  17.0418338
   3.9645575  29.0395865  18.5088590   8.7069577  34.6852500  16.6654748
   8.6745897  33.7468501  16.8514432   9.3170201  34.7636537  15.9320573
   8.8564065  31.4763544  16.7113031   8.3403114  30.6922000  16.5242960
   9.7404014  31.1482260  16.8759551   6.5174792  25.2204559  12.6708844
   6.3199613  24.9119647  13.5552176   7.1274498  25.9466198  12.8006774
  14.5246127  35.7468507  15.8060785  15.2549515  35.4853795  16.3668488
  13.9153072  35.0097229  15.8462853  12.6061424  33.8876370  16.4035236
  11.8794587  33.7532335  15.7951728  12.1908711  34.1953198  17.2091954
   2.2748439  25.1013466  10.4205375   2.8279478  25.5208920  11.0795398
   2.5118525  24.1749214  10.4628331   5.6527246  27.2113991   9.9284040
   5.0725915  27.8698795   9.5462092   5.3863179  26.3891336   9.5171457
   4.1030812  26.6119049  12.1305360   4.6030591  26.7235583  11.3219679
   4.7466420  26.3080102  12.7706168   4.4352124  29.3714082   8.9840388
   3.5477979  29.6563732   8.7660583   4.8506113  29.2107845   8.1367665
   7.7866660  29.3960603  12.6994727   8.5627050  29.8857055  12.9719344
   7.0614794  29.8218657  13.1566597  10.2239219  30.1088222  13.7568668
  10.8183710  29.8683958  13.0461976  10.2965803  29.3895352  14.3842204
   4.4093148  34.8868618   9.1990678   4.3528349  35.3437169   8.3598310
   4.9621490  34.1259302   9.0213521   8.2197954  30.6758349  10.0240797
   7.9634888  30.2754985  10.8549005   7.5950822  31.3902143   9.8990937
  12.5310292  33.4154423  12.5312089  11.9709850  33.4847612  13.3043651
  11.9253795  33.2395407  11.8111585   2.4573834  38.3822311  25.8196770
   3.3264994  38.5562963  25.4583405   1.9780586  39.2016728  25.6972499
   2.2676172  22.1724284  10.3274462   1.5008568  21.6182771  10.4731145
   2.6786877  22.2446153  11.1888614  13.6707578  47.8162390  12.2995253
  14.4570668  47.3981814  11.9485670  13.9346283  48.7208483  12.4676901
  19.0716006  47.7537624  13.2028231  19.8041178  47.1836840  13.4366061
  18.3155361  47.3659224  13.6434737  16.5941426  41.4659198  17.6622840
  16.2624751  42.3354609  17.4384055  15.9987039  41.1495482  18.3416870
  16.4870089  46.1854284  14.7416190  15.5786967  46.1169692  14.4474951
  16.4357685  46.6626229  15.5698015  10.5610955  47.6043930  22.6851087
   9.7844289  48.1637850  22.6753952  11.2001518  48.0900713  23.2065957
  18.3531736  44.3870722  16.5194064  17.7106116  44.6803256  15.8733858
  17.8486664  44.2723643  17.3247260  16.0071899  48.1333896   7.2079923
  16.9189755  48.3661282   7.0327621  15.4981546  48.7170940   6.6455002
  10.6443737  47.4931130  18.2174773  11.4904932  47.9170544  18.3609422
  10.5842375  46.8364754  18.9113336  13.7943182  45.1535498  19.8755946
  13.5504114  45.9077559  19.3390222  14.0703113  45.5320846  20.7103193
  13.3507874  44.3091932  15.4569784  12.4892353  44.6073185  15.7486521
  13.3770309  44.5262330  14.5250817   7.5518691  47.5669031  23.0484364
   6.9217352  48.2485312  23.2819761   7.4454779  47.4552113  22.1037502
  24.9533466  50.9184815  13.0740541  24.1997175  50.3492213  12.9184545
  25.0881007  50.8847479  14.0211175   6.8299434  41.8689797  25.4109615
   6.4366379  41.3155995  26.0857259   7.6465574  42.1800375  25.8016133
   9.7467395  43.2847676  23.0029872  10.4877108  43.8854829  22.9234334
   9.9785318  42.5425314  22.4447914  13.6924558  39.3128779  17.2794153
  13.3488827  40.2030421  17.2033264  14.0603520  39.1230437  16.4163738
  11.2421952  44.1487091  10.8451827  10.3863548  43.7593941  10.6657466
  11.6548903  44.2279052   9.9851612  12.7721098  41.6833434  15.2443387
  12.2685894  41.6463569  14.4311192  13.0651705  42.5926177  15.3040043
   9.0163984  41.7672164  14.2509568   9.8816981  41.5714973  13.8915458
   9.0841493  41.5382516  15.1778925  18.6309115  52.0569745   7.7219762
  17.8538557  51.7180904   7.2774924  19.3100596  52.0622368   7.0474727
  13.4461144  47.1764482   7.6126370  13.1411279  47.4910631   8.4636513
  14.3991586  47.2545902   7.6553703   6.6226303  43.9974372  11.6225935
   7.1970055  43.7749553  10.8899128   7.2097286  44.0663066  12.3754536
  15.6805880  49.8848099  12.4290312  16.1937762  50.5178090  12.9312021
  16.3307104  49.2849294  12.0633672   8.9248971  40.8715621  10.3501005
   8.2713383  40.5564638   9.7257619   8.8829445  40.2491361  11.0760828
  12.1586711  47.3597554  14.6748652  11.2409273  47.5812501  14.5170340
  12.5746855  47.4343865  13.8160360  12.9421759  48.7588970   9.8051332
  13.6893578  49.2710367   9.4958455  13.2113349  48.4373023  10.6655726
  15.3900596  45.7946086  11.7870122  14.6523353  45.2823472  12.1180364
  15.6427370  45.3546468  10.9753399  15.4912223  38.5722338  12.3811891
  15.7971100  37.7119702  12.0937806  16.2164828  39.1639958  12.1810885
   9.7633303  48.8676131  12.8888082   9.8181913  47.9149968  12.8130559
   8.9524505  49.0235570  13.3729381  13.2999875  47.9495015  19.4793355
  13.6549263  48.1766489  20.3387821  13.9472006  48.2813392  18.8570610
  19.0297612  51.0713451  10.1842684  18.8915510  51.2615047   9.2563873
  18.6733831  51.8332834  10.6410735   7.1939738  45.0571546  16.2639696
   7.8339117  44.9160306  15.5662659   6.3617268  44.7706060  15.8878298
   5.6693280  46.4409629  18.2111507   6.3416333  46.2326991  17.5624156
   4.8423066  46.2431715  17.7716740  11.5718852  43.0671570  20.2277168
  10.9246767  43.7661519  20.1341645  12.3419867  43.5007713  20.5953416
   7.4132012  46.4137409  20.2793264   6.8769369  45.9628147  20.9314860
   6.8248720  46.5483318  19.5363728   3.1471133  45.5493417  17.3646258
   3.0629321  44.9419086  16.6296668   2.3253839  46.0402435  17.3655754
  13.3194847  44.0346980  12.7316453  13.8163546  43.2816942  12.4117523
  12.5481828  44.0711297  12.1659662  21.1724604  49.7387346  14.3734745
  21.1614480  50.6212061  14.0028678  20.3041983  49.3858896  14.1789282
   9.9029815  46.1764363  12.4588138   9.5327603  45.6235403  13.1469043
  10.3988908  45.5722497  11.9063138  17.7897179  48.6335987  10.8404911
  18.2557631  49.4663978  10.7665213  18.2404679  48.1680968  11.5450169
  15.7613841  41.0016574  14.8795812  14.8476921  41.2320800  15.0478019
  16.1906943  41.0855018  15.7309844  15.5320300  49.1906466  17.3795706
  14.8791750  49.4382373  16.7248159  15.9100680  48.3770604  17.0458183
  11.5807873  49.9326277  23.8661743  10.9048510  49.8320406  24.5364118
  12.4035507  49.7765490  24.3297740   5.2995149  43.5868354  18.7041244
   5.3636476  44.4483185  18.2918641   5.2362269  42.9742355  17.9713602
   4.7747422  45.6591486  22.3514278   5.4019460  45.2768564  22.9651802
   3.9175340  45.4405688  22.7169971   5.0807211  45.5423912  14.2660181
   4.3593797  46.1559880  14.1267655   5.8700467  46.0781677  14.1876827
   7.8833525  42.8778339  20.5400833   8.4067927  43.1240635  21.3027143
   7.6645858  43.7098373  20.1203971   9.0886070  43.8192034  18.2250504
   8.7482890  43.0199847  18.6271184   8.3825076  44.1193744  17.6527337
   9.7402542  40.9041346  16.6777827  10.5628611  40.4301824  16.5556717
   9.9840605  41.6831830  17.1776513  12.5241899  44.6374753   7.9099061
  12.7405513  45.5199391   7.6087889  12.0435966  44.2460967   7.1804703
   7.2641120  47.5960467  14.4869805   7.1185701  47.9100770  15.3794087
   6.7866324  48.2145367  13.9340704   9.1237503  44.5863015  14.5350695
   9.1099072  43.6904108  14.1982993   9.8409931  44.5933678  15.1688981
  10.9763634  45.0200355  16.5803822  10.7181412  45.9417426  16.5788153
  10.4448674  44.6230789  17.2704287   8.5274399  43.4677395   9.8038265
   8.6490310  42.5394041  10.0029153   8.2376442  43.4816081   8.8916581
  11.3965590  41.1532305  12.9404985  11.4187286  41.2171639  11.9856964
  11.8133649  40.3136814  13.1345491  21.7749214  50.8887565  10.9784208
  22.2180360  50.1394890  10.5803331  20.8975724  50.8797701  10.5957939
   8.0115479  44.9809392  24.0128198   8.0603634  45.8571515  23.6305967
   8.5537993  44.4386785  23.4399841  18.6168200  52.3742982  20.6062063
  18.6666204  52.2092989  21.5477586  18.5082123  51.5070241  20.2159944
  15.9071962  48.3573910  21.9221370  16.8081825  48.2180375  21.6305368
  15.9819936  48.5228365  22.8619547  10.2414767  45.7340765  20.7674556
   9.3718077  46.0274331  20.4957145  10.4774248  46.3181210  21.4881820
  21.3182079  52.3592803  13.3706655  22.1528970  52.7982607  13.5344215
  21.4541207  51.8831456  12.5514901  18.3673585  49.9172538  19.3184143
  18.8427706  50.1100184  18.5102994  17.4439150  49.9731724  19.0727527
  12.9453801  41.9520382  18.2839977  13.4635745  42.6881409  17.9586465
  12.5908934  42.2584375  19.1186736  13.1966395  38.3720664  13.8040873
  13.4768149  37.7043853  14.4301300  13.9817002  38.5649760  13.2915537
  17.0675254  46.7938298  17.5512448  18.0192677  46.8936396  17.5724672
  16.8978704  46.0016567  18.0610533  15.0889633  43.8793881  17.7371849
  14.4939565  44.1598894  17.0418338  14.8039330  44.3687782  18.5088590
  19.5463331  50.0144418  16.6654748  19.5139652  49.0760419  16.8514432
  20.1563955  50.0928455  15.9320573  19.6957820  46.8055461  16.7113031
  19.1796869  46.0213918  16.5242960  20.5797768  46.4774178  16.8759551
  17.3568547  40.5496477  12.6708844  17.1593368  40.2411565  13.5552176
  17.9668252  41.2758116  12.8006774  25.3639881  51.0760425  15.8060785
  26.0943270  50.8145713  16.3668488  24.7546827  50.3389147  15.8462853
  23.4455178  49.2168287  16.4035236  22.7188342  49.0824252  15.7951728
  23.0302465  49.5245116  17.2091954  11.1851645  41.3527337   8.7981079
  10.3752373  41.0074422   9.1736325  11.8736062  41.0434881   9.3868690
  13.1142193  40.4305384  10.4205375  13.6673232  40.8500837  11.0795398
  13.3512280  39.5041132  10.4628331   9.1375293  46.4192457  26.2008139
   9.0372020  47.3686814  26.1320230   8.9196835  46.0910696  25.3284209
  16.4921001  42.5405909   9.9284040  15.9119670  43.1990713   9.5462092
  16.2256933  41.7183254   9.5171457  14.9424567  41.9410967  12.1305360
  15.4424345  42.0527501  11.3219679  15.5860175  41.6372019  12.7706168
  15.2745879  44.7005999   8.9840388  14.3871734  44.9855650   8.7660583
  15.6899868  44.5399763   8.1367665  18.6260415  44.7252520  12.6994727
  19.4020805  45.2148973  12.9719344  17.9008549  45.1510574  13.1566597
  21.0632973  45.4380140  13.7568668  21.6577464  45.1975875  13.0461976
  21.1359557  44.7187270  14.3842204  15.2486902  50.2160535   9.1990678
  15.1922104  50.6729087   8.3598310  15.8015245  49.4551220   9.0213521
  19.0591708  46.0050267  10.0240797  18.8028642  45.6046903  10.8549005
  18.4344576  46.7194061   9.8990937  23.3704046  48.7446340  12.5312089
  22.8103604  48.8139530  13.3043651  22.7647549  48.5687325  11.8111585
  13.1069927  37.5016202  10.3274462  12.3402322  36.9474689  10.4731145
  13.5180631  37.5738071  11.1888614   5.1111688  43.7900998  24.4179644
   5.9743149  43.4337803  24.6282968   4.5377098  43.4514893  25.1055048
  26.3305978  53.9014256  12.3811891  26.6364855  53.0411619  12.0937806
  27.0558583  54.4931876  12.1810885  24.0360150  53.7012582  13.8040873
  24.3161904  53.0335771  14.4301300  24.8210757  53.8941677  13.2915537
  23.9463681  52.8308120  10.3274462  23.1796077  52.2766607  10.4731145
  24.3574386  52.9029989  11.1888614   4.3347777  17.7424666  10.6813320
   4.8787681  18.3554625  10.1868275   3.7534622  18.3004245  11.1980333
   7.6576571  17.2020721  10.0174641   6.8672115  17.1844859   9.4779141
   7.4209926  17.7409014  10.7723678   2.4573836  15.3884433  12.5442077
   3.3264995  15.5625086  12.1828711   1.9780587  16.2078850  12.4217806
  14.1166311  27.0973059   1.9487351  14.7544721  26.9779807   1.2450691
  13.9987154  28.0453903   2.0075303  11.4075801  28.2035339   7.8435081
  11.3964441  27.8088137   6.9715585  11.5696440  27.4701412   8.4368853
   8.1283062  30.9872451   6.7914265   7.8372928  31.8918082   6.6760932
   8.7640046  31.0288978   7.5058335   9.0539269  28.3649299   3.3815625
   9.6502841  28.1405322   2.6672588   9.1114240  27.6234045   3.9841073
  19.0716007  24.7599746  -0.0726462  19.8041179  24.1898963   0.1611367
  18.3155363  24.3721347   0.3680043  16.5941427  18.4721320   4.3868146
  16.2624752  19.3416731   4.1629361  15.9987041  18.1557604   5.0662177
  13.0872947  30.6733866   3.7864059  12.7873670  31.5758905   3.6779866
  12.7424006  30.4066050   4.6385212  10.5610956  24.6106052   9.4096394
   9.7844290  25.1699972   9.3999258  11.2001519  25.0962835   9.9311264
  18.3531737  21.3932845   3.2439370  17.7106117  21.6865378   2.5979165
  17.8486665  21.2785765   4.0492567   8.8157329  27.4191506   8.9714361
   9.5572013  27.9576549   8.6949184   8.1094314  28.0457794   9.1285913
  14.2912668  29.5620646   7.5686522  14.6996024  29.1203056   6.8241155
  13.5689930  28.9873273   7.8220715  10.6443738  24.4993253   4.9420079
  11.4904934  24.9232666   5.0854728  10.5842376  23.8426877   5.6358642
  14.6141483  30.1221837   1.3238811  13.9850345  30.2867551   0.6214879
  14.2267145  30.5363446   2.0949775  18.4930715  31.0576274  -1.3216825
  17.8081753  31.4375176  -1.8719792  18.5774564  31.6671601  -0.5884877
  13.7943184  22.1597621   6.6001253  13.5504116  22.9139682   6.0635528
  14.0703114  22.5382969   7.4348500  15.7481646  28.7036233   5.2778518
  15.9598542  29.3467993   4.6012899  15.7011395  27.8698550   4.8100448
   7.5518692  24.5731154   9.7729671   6.9217353  25.2547435  10.0065068
   7.4454780  24.4614235   8.8282809  16.8627474  31.5808189   3.4500876
  17.6844918  31.1788376   3.1683557  16.8589877  31.4776423   4.4016992
  10.6284078  31.1292232   5.6061586  10.6928510  31.5912639   6.4419758
   9.9195002  30.4989597   5.7343896  24.9533467  27.9246937  -0.2014153
  24.1997176  27.3554335  -0.3570148  25.0881009  27.8909602   0.7456482
   6.8299435  18.8751920  12.1354922   6.4366381  18.3218118  12.8102566
   7.6465575  19.1862498  12.5261439   9.7467396  20.2909799   9.7275178
  10.4877109  20.8916952   9.6479641   9.9785319  19.5487436   9.1693221
   4.8908734  25.4766166   8.0053408   4.7762249  24.5751423   8.3060507
   4.0353252  25.7229863   7.6538225  11.9700572  33.4183906   9.6040909
  11.5264426  32.6320285   9.2861813  12.6317785  33.6063057   8.9384799
  14.0681810  33.6986706   7.6322310  14.0500285  34.5195587   7.1402579
  14.9901730  33.5740781   7.8572451  10.5254864  31.2130836   8.4745818
  11.0583201  30.4519124   8.2445126   9.9968945  30.9204487   9.2169973
  16.8700423  28.5365849   1.1031677  16.2124097  29.2265110   1.1911805
  17.6740822  28.9262280   1.4465663  16.4467678  31.8716223  -2.7185239
  15.9930005  31.0307133  -2.6620049  15.8161645  32.5077621  -2.3810459
  14.8900617  33.7092719  -1.7835421  15.1823591  34.2697776  -2.5023055
  15.3999238  34.0021280  -1.0282262  13.2999876  24.9557138   6.2038662
  13.6549264  25.1828611   7.0633127  13.9472007  25.2875515   5.5815917
  19.0566993  30.1452101   1.9199262  19.4903499  30.0527390   2.7682316
  19.7698573  30.1209601   1.2819278  12.7894888  33.7454195   3.4532363
  12.8431910  34.3145131   4.2210079  11.9209669  33.9156080   3.0886400
  19.9182542  30.1875802   4.4532147  20.1118432  31.0921612   4.6991422
  19.8183160  29.7283221   5.2870732  11.5718853  20.0733692   6.9522475
  10.9246768  20.7723642   6.8586951  12.3419868  20.5069836   7.3198723
  14.9797651  30.3382544  10.0273028  14.8283157  30.1093096   9.1103112
  14.9702330  31.2953146  10.0404373  11.7482987  27.9114457   5.0119295
  12.6775047  28.0625617   4.8388262  11.3274017  27.9998478   4.1567941
  10.5471319  31.9365121   2.7817832  10.4082405  31.5683906   3.6543770
   9.7585915  32.4512761   2.6101790  12.0976534  31.3146724   0.1706670
  11.7626367  31.2747494   1.0664320  11.5980480  30.6491440  -0.3022920
   6.0720778  26.7214354   5.6959251   5.9340576  25.9894593   6.2970790
   6.9825702  26.6323254   5.4143439   8.7003079  26.4334314   5.1842931
   9.4102697  25.7927506   5.1429549   8.6572387  26.6847208   6.1069111
  16.6889857  33.3701667   8.1049510  16.6302404  32.6860887   7.4380093
  17.0909376  34.1120657   7.6530136   7.4132013  23.4199531   7.0038570
   6.8769370  22.9690270   7.6560167   6.8248721  23.5545440   6.2609035
  16.6907265  31.3341251   6.3363490  15.8034044  30.9967173   6.4589888
  17.2605816  30.6024282   6.5732255  21.1724605  26.7449468   1.0980051
  21.1614482  27.6274184   0.7273984  20.3041985  26.3921019   0.9034588
  12.6807102  35.8929537   5.4582891  13.3935074  36.5277002   5.3858793
  12.1897130  35.9893403   4.6422893   7.7319015  33.6423981   6.2788462
   8.4328475  34.2760464   6.4317857   7.2614130  33.9838712   5.5184102
  15.5320301  26.1968588   4.1041013  14.8791751  26.4444496   3.4493465
  15.9100681  25.3832726   3.7703490  11.5807874  26.9388399  10.5907050
  10.9048511  26.8382528  11.2609425  12.4035508  26.7827613  11.0543047
  10.3230657  38.2455327   4.8264666  10.8748965  38.4086948   5.5913751
  10.6636851  38.8359764   4.1544691   4.7747423  22.6653609   9.0759585
   5.4019462  22.2830686   9.6897109   3.9175342  22.4467811   9.4415277
  15.1741531  33.0716584  10.6813320  15.7181435  33.6846542  10.1868275
  14.5928376  33.6296163  11.1980333  13.4599044  36.1937302   1.8128348
  13.3350184  35.3927042   1.3039293  14.1178135  36.6883496   1.3242318
  15.5233953  33.9946322   3.4407898  14.5764288  33.8751673   3.3686225
  15.8716726  33.1068820   3.5234159   7.8833526  19.8840461   7.2646140
   8.4067928  20.1302758   8.0272449   7.6645859  20.7160496   6.8449277
  12.5280386  33.7899038  -0.3587750  12.3805348  32.8615746  -0.1780180
  13.3533880  33.8119129  -0.8430675  16.1314508  34.6127597   0.7277123
  17.0561055  34.4070459   0.5901574  15.9629811  34.3643998   1.6366464
  21.7749215  27.8949688  -2.2970486  22.2180361  27.1457013  -2.6951363
  20.8975726  27.8859824  -2.6796754   2.5252806  26.2697830   7.0432930
   1.7834542  26.4180465   7.6297560   2.2045550  26.5306096   6.1799679
  10.4696468  35.8113808   6.8413320  10.7783595  35.5662955   7.7136020
  11.2671950  36.0160447   6.3532190   8.0115480  21.9871515  10.7373504
   8.0603636  22.8633638  10.3551274   8.5537994  21.4448908  10.1645148
  18.4970326  32.5312638  10.0174641  17.7065869  32.5136777   9.4779141
  18.2603680  33.0700932  10.7723678  18.6168201  29.3805105   7.3307370
  18.6666206  29.2155112   8.2722893  18.5082124  28.5132364   6.9405251
  15.9071963  25.3636033   8.6466677  16.8081826  25.2242497   8.3550674
  15.9819938  25.5290487   9.5864854  10.2414769  22.7402887   7.4919863
   9.3718078  23.0336453   7.2202452  10.4774249  23.3243332   8.2127127
  20.1186398  31.8002046   7.5749391  19.8271206  32.1632027   8.4112852
  19.5058529  31.0869054   7.3962724  21.3182080  29.3654926   0.0951962
  22.1528971  29.8044730   0.2589522  21.4541209  28.8893579  -0.7239793
  18.3673586  26.9234661   6.0429449  18.8427707  27.1162307   5.2348301
  17.4439151  26.9793847   5.7972833  12.9453802  18.9582504   5.0085283
  13.4635746  19.6943531   4.6831772  12.5908935  19.2646498   5.8432042
  17.0675255  23.8000421   4.2757755  18.0192678  23.8998518   4.2969979
  16.8978705  23.0078689   4.7855839  15.0889634  20.8856004   4.4617156
  14.4939566  21.1661017   3.7663645  14.8039331  21.3749905   5.2333897
  19.5463333  27.0206540   3.3900055  19.5139653  26.0822541   3.5759739
  20.1563956  27.0990577   2.6565880  19.6957821  23.8117584   3.4358338
  19.1796870  23.0276041   3.2488267  20.5797770  23.4836301   3.6004857
  25.3639883  28.0822547   2.5306092  26.0943271  27.8207835   3.0913795
  24.7546828  27.3451269   2.5708159  23.4455180  26.2230410   3.1280543
  22.7188343  26.0886375   2.5197034  23.0302467  26.5307239   3.9337261
  11.2685356  29.9420340  10.8927916  12.1888366  30.1198939  11.0867962
  11.2334939  28.9976385  10.7407615   4.2647429  27.8521374   3.5350697
   4.4833438  28.7838482   3.5538731   4.6773202  27.4929349   4.3205501
   9.1375294  23.4254580  12.9253446   9.0372021  24.3748937  12.8565537
   8.9196836  23.0972819  12.0529516   9.0006564  26.8551719  11.7418507
   8.5173646  27.6552079  11.9482397   9.0867503  26.8659664  10.7885951
   4.9279901  30.7456254   3.7786941   5.8823155  30.7140196   3.7116873
   4.7292425  30.2846877   4.5937167   5.5179284  29.3157370   6.3457739
   6.3372173  29.8101448   6.3692576   5.7916091  28.3989338   6.3175306
  21.0632975  22.4442262   0.4813974  21.6577465  22.2037998  -0.2292717
  21.1359558  21.7249393   1.1087511  23.3704047  25.7508463  -0.7442604
  22.8103605  25.8201652   0.0288958  22.7647551  25.5749448  -1.4643108
  13.2967590  30.7176351  12.5442077  14.1658750  30.8917003  12.1828711
  12.8174342  31.5370768  12.4217806   5.1111689  20.7963121  11.1424950
   5.9743150  20.4399925  11.3528275   4.5377099  20.4577015  11.8300354
  21.7649772  42.3792405   1.8848876  21.4268284  42.2633470   0.9969411
  22.6339540  41.9783570   1.8649882  22.2469555  43.5327257   7.8435081
  22.2358196  43.1380055   6.9715585  22.4090195  42.7993329   8.4368853
  18.9676816  46.3164369   6.7914265  18.6766682  47.2209999   6.6760932
  19.6033801  46.3580896   7.5058335  19.8933023  43.6941217   3.3815625
  20.4896595  43.4697239   2.6672588  19.9507995  42.9525963   3.9841073
  27.4335182  33.8013238   4.3868146  27.1018507  34.6708649   4.1629361
  26.8380795  33.4849522   5.0662177  27.3263845  38.5208324   1.4661496
  26.4180722  38.4523733   1.1720257  27.2751441  38.9980269   2.2943322
  21.4004711  39.9397970   9.4096394  20.6238045  40.4991890   9.3999258
  22.0395274  40.4254753   9.9311264  29.1925491  36.7224763   3.2439370
  28.5499872  37.0157296   2.5979165  28.6880420  36.6077683   4.0492567
  19.6551083  42.7483423   8.9714361  20.3965768  43.2868467   8.6949184
  18.9488069  43.3749712   9.1285913  25.1306423  44.8912564   7.5686522
  25.5389779  44.4494974   6.8241155  24.4083684  44.3165191   7.8220715
  21.4837493  39.8285170   4.9420079  22.3298688  40.2524584   5.0854728
  21.4236130  39.1718795   5.6358642  24.6336938  37.4889539   6.6001253
  24.3897870  38.2431599   6.0635528  24.9096869  37.8674886   7.4348500
  26.5875401  44.0328151   5.2778518  26.7992296  44.6759911   4.6012899
  26.5405149  43.1990468   4.8100448  24.1901630  36.6445972   2.1815091
  23.3286109  36.9427225   2.4731828  24.2164065  36.8616371   1.2496123
  18.3912447  39.9023071   9.7729671  17.7611107  40.5839352  10.0065068
  18.2848535  39.7906153   8.8282809  21.4677832  46.4584150   5.6061586
  21.5322265  46.9204557   6.4419758  20.7588756  45.8281515   5.7343896
  17.6693190  34.2043837  12.1354922  17.2760135  33.6510036  12.8102566
  18.4859330  34.5154416  12.5261439  20.5861151  35.6201716   9.7275178
  21.3270864  36.2208869   9.6479641  20.8179073  34.8779354   9.1693221
  15.7302489  40.8058084   8.0053408  15.6156004  39.9043341   8.3060507
  14.8747006  41.0521780   7.6538225  22.8094326  48.7475824   9.6040909
  22.3658181  47.9612202   9.2861813  23.4711540  48.9354974   8.9384799
  24.9075564  49.0278624   7.6322310  24.8894040  49.8487505   7.1402579
  25.8295484  48.9032699   7.8572451  21.3648619  46.5422753   8.4745818
  21.8976955  45.7811041   8.2445126  20.8362700  46.2496405   9.2169973
  24.5318314  31.6482819   4.0039460  24.1882583  32.5384461   3.9278571
  24.8997276  31.4584477   3.1409045  23.6114854  34.0187474   1.9688693
  23.1079650  33.9817610   1.1556499  23.9045461  34.9280217   2.0285350
  19.8557740  34.1026204   0.9754875  20.7210737  33.9069013   0.6160764
  19.9235249  33.8736556   1.9024232  17.4620059  36.3328412  -1.6528758
  18.0363811  36.1103594  -2.3855565  18.0491041  36.4017107  -0.9000157
  19.7642727  33.2069661  -2.9253689  19.1107139  32.8918678  -3.5497074
  19.7223201  32.5845401  -2.1993866  22.9980467  39.6951594   1.3993959
  22.0803028  39.9166541   1.2415647  23.4140611  39.7697905   0.5405666
  26.3305979  30.9076378  -0.8942802  26.6364856  30.0473742  -1.1816887
  27.0558584  31.4993999  -1.0943808  20.6027059  41.2030171  -0.3866611
  20.6575669  40.2504008  -0.4624135  19.7918261  41.3589611   0.0974687
  24.1393631  40.2849056   6.2038662  24.4943018  40.5120529   7.0633127
  24.7865762  40.6167432   5.5815917  18.0333494  37.3925587   2.9885003
  18.6732873  37.2514346   2.2907966  17.2011024  37.1060100   2.6123605
  16.5087035  38.7763669   4.9356814  17.1810089  38.5681031   4.2869463
  15.6816822  38.5785755   4.4962046  22.4112607  35.4025610   6.9522475
  21.7640522  36.1015559   6.8586951  23.1813623  35.8361754   7.3198723
  25.8191405  45.6674462  10.0273028  25.6676912  45.4385014   9.1103112
  25.8096085  46.6245063  10.0404373  22.5876742  43.2406375   5.0119295
  23.5168802  43.3917534   4.8388262  22.1667772  43.3290396   4.1567941
  16.9114533  42.0506272   5.6959251  16.7734331  41.3186511   6.2970790
  17.8219456  41.9615172   5.4143439  19.5396833  41.7626231   5.1842931
  20.2496452  41.1219423   5.1429549  19.4966141  42.0139126   6.1069111
  27.5283612  48.6993585   8.1049510  27.4696158  48.0152805   7.4380093
  27.9303130  49.4412575   7.6530136  18.2525767  38.7491449   7.0038570
  17.7163124  38.2982188   7.6560167  17.6642476  38.8837358   6.2609035
  27.5301019  46.6633168   6.3363490  26.6427798  46.3259090   6.4589888
  28.0999570  45.9316200   6.5732255  13.9864889  37.8847457   4.0891565
  13.9023077  37.2773126   3.3541975  13.1647595  38.3756475   4.0901061
  24.1588602  36.3701020  -0.5438240  24.6557302  35.6170983  -0.8637170
  23.3875584  36.4065337  -1.1095031  20.7423571  38.5118403  -0.8166556
  20.3721359  37.9589444  -0.1285650  21.2382664  37.9076537  -1.3691556
  18.5712770  48.9715898   6.2788462  19.2722229  49.6052381   6.4317857
  18.1007885  49.3130630   5.5184102  26.6007597  33.3370614   1.6041119
  25.6870677  33.5674841   1.7723326  27.0300699  33.4209058   2.4555151
  26.3714056  41.5260506   4.1041013  25.7185506  41.7736413   3.4493465
  26.7494436  40.7124644   3.7703490  22.4201629  42.2680317  10.5907050
  21.7442266  42.1674446  11.2609425  23.2429263  42.1119531  11.0543047
  16.1388905  35.9222394   5.4286550  16.2030231  36.7837225   5.0163948
  16.0756025  35.3096396   4.6958909  15.6141177  37.9945527   9.0759585
  16.2413216  37.6122604   9.6897109  14.7569096  37.7759729   9.4415277
  26.0135286  48.4008502  10.6813320  26.5575190  49.0138460  10.1868275
  25.4322131  48.9588080  11.1980333  15.9200967  37.8777952   0.9905488
  15.1987553  38.4913920   0.8512961  16.7094223  38.4135717   0.9122134
  18.7227281  35.2132379   7.2646140  19.2461682  35.4594675   8.0272449
  18.5039614  36.0452414   6.8449277  19.9279826  36.1546074   4.9495810
  19.5876646  35.3553887   5.3516490  19.2218832  36.4547785   4.3772644
  20.5796297  33.2395386   3.4023133  21.4022367  32.7655865   3.2802024
  20.8234361  34.0185870   3.9021820  18.1034876  39.9314507   1.2115112
  17.9579457  40.2454810   2.1039394  17.6260080  40.5499407   0.6586011
  19.9631259  36.9217055   1.2596002  19.9492828  36.0258148   0.9228300
  20.6803687  36.9287719   1.8934288  21.8157390  37.3554395   3.3049129
  21.5575168  38.2771466   3.3033459  21.2842430  36.9584830   3.9949593
  22.2359345  33.4886346  -0.3349708  22.2581042  33.5525679  -1.2897729
  22.6527404  32.6490854  -0.1409202  13.3646560  41.5989748   7.0432930
  12.6228296  41.7472383   7.6297560  13.0439305  41.8598013   6.1799679
  21.3090223  51.1405726   6.8413320  21.6177349  50.8954873   7.7136020
  22.1065705  51.3452364   6.3532190  18.8509235  37.3163433  10.7373504
  18.8997390  38.1925555  10.3551274  19.3931749  36.7740826  10.1645148
  29.3364080  47.8604556  10.0174641  28.5459624  47.8428695   9.4779141
  29.0997435  48.3992850  10.7723678  29.4561955  44.7097022   7.3307370
  29.5059960  44.5447030   8.2722893  29.3475879  43.8424281   6.9405251
  26.7465718  40.6927950   8.6466677  27.6475580  40.5534415   8.3550674
  26.8213692  40.8582405   9.5864854  21.0808523  38.0694805   7.4919863
  20.2111832  38.3628371   7.2202452  21.3168003  38.6535250   8.2127127
  30.9580152  47.1293964   7.5749391  30.6664960  47.4923944   8.4112852
  30.3452283  46.4160972   7.3962724  29.2067340  42.2526578   6.0429449
  29.6821462  42.4454225   5.2348301  28.2832906  42.3085764   5.7972833
  23.7847557  34.2874422   5.0085283  24.3029501  35.0235449   4.6831772
  23.4302690  34.5938415   5.8432042  24.0360151  30.7074704   0.5286180
  24.3161905  30.0397894   1.1546606  24.8210758  30.9003800   0.0160844
  27.9069009  39.1292338   4.2757755  28.8586432  39.2290436   4.2969979
  27.7372460  38.3370607   4.7855839  25.9283389  36.2147922   4.4617156
  25.3333321  36.4952934   3.7663645  25.6433086  36.7041823   5.2333897
  30.5351576  39.1409502   3.4358338  30.0190624  38.3567958   3.2488267
  31.4191524  38.8128218   3.6004857  28.1962303  32.8850517  -0.6045849
  27.9987124  32.5765605   0.2797483  28.8062008  33.6112156  -0.4747920
  22.1079111  45.2712257  10.8927916  23.0282120  45.4490856  11.0867962
  22.0728694  44.3268303  10.7407615  15.1041183  43.1813292   3.5350697
  15.3227193  44.1130400   3.5538731  15.5166957  42.8221266   4.3205501
  23.9535949  32.7659424  -2.8549318  24.5066988  33.1854877  -2.1959295
  24.1906036  31.8395172  -2.8126362  19.9769048  38.7546498  12.9253446
  19.8765775  39.7040855  12.8565537  19.7590590  38.4264737  12.0529516
  25.7818323  34.2765007  -1.1449333  26.2818101  34.3881541  -1.9535015
  26.4253931  33.9726060  -0.5048525  19.8400318  42.1843637  11.7418507
  19.3567400  42.9843997  11.9482397  19.9261258  42.1951581  10.7885951
  15.7673656  46.0748171   3.7786941  16.7216910  46.0432114   3.7116873
  15.5686180  45.6138795   4.5937167  16.3573038  44.6449287   6.3457739
  17.1765927  45.1393366   6.3692576  16.6309846  43.7281255   6.3175306
  11.6107952  38.9787421   7.0449936  12.2566816  38.4686375   7.5337161
  11.4025103  39.7156103   7.6193361  24.1361345  46.0468269  12.5442077
  25.0052504  46.2208921  12.1828711  23.6568096  46.8662685  12.4217806
  23.9463682  29.8370242  -2.9480231  23.1796078  29.2828729  -2.8023549
  24.3574387  29.9092111  -2.0866079  15.9505443  36.1255038  11.1424950
  16.8136905  35.7691843  11.3528275  15.3770854  35.7868933  11.8300354
  28.5086944  49.5335755  12.1354922  28.1153890  48.9801953  12.8102566
  29.3253084  49.8446333  12.5261439  26.4534932  53.3237444   9.0759585
  27.0806971  52.9414522   9.6897109  25.5962851  53.1051646   9.4415277
  30.8162803  54.0838415  12.9253446  30.7159530  55.0332772  12.8565537
  30.5984345  53.7556654  12.0529516  26.7899198  51.4546956  11.1424950
  27.6530659  51.0983761  11.3528275  26.2164608  51.1160851  11.8300354
  26.0135287  25.4070624  -2.5941373  26.5575191  26.0200583  -3.0886418
  25.4322132  25.9650203  -2.0774360  29.3364082  24.8666678  -3.2580052
  28.5459625  24.8490817  -3.7975553  29.0997436  25.4054972  -2.5031015
  24.1361346  23.0530391  -0.7312617  25.0052505  23.2271044  -1.0925982
  23.6568097  23.8724808  -0.8536887  28.5086945  26.5397877  -1.1399772
  28.1153891  25.9864076  -0.4652127  29.3253086  26.8508456  -0.7493254
  26.4534933  30.3299567  -4.1995109  27.0806972  29.9476644  -3.5857584
  25.5962852  30.1113769  -3.8339416  30.8162804  31.0900538  -0.3501248
  30.7159531  32.0394895  -0.4189156  30.5984346  30.7618777  -1.2225177
  26.7899199  28.4609078  -2.1329743  27.6530661  28.1045883  -1.9226419
  26.2164610  28.1222973  -1.4454339
  54.5679038  54.5679038  54.5679038 109.4712190 109.4712190 109.4712190
